# Residuals   
# Time        	p             	Ux            	Uy            	Uz            	h             
1             	1.000000e+00	1.000000e+00	1.000000e+00	1.000000e+00	1.000000e+00
2             	1.000000e+00	3.867576e-01	1.043107e-02	3.975321e-01	1.656737e-01
3             	3.916349e-01	1.889196e-01	5.046750e-03	1.363879e-01	9.637071e-02
4             	2.645055e-01	5.922675e-02	3.809158e-03	1.206719e-01	7.574932e-02
5             	1.806933e-01	7.925482e-02	3.168803e-03	8.805500e-02	6.545326e-02
6             	1.386945e-01	4.473648e-02	3.085683e-03	4.709059e-02	5.734415e-02
7             	9.768219e-02	4.640314e-02	2.946158e-03	6.209676e-02	4.929305e-02
8             	7.800912e-02	3.769982e-02	3.180218e-03	6.327515e-02	4.379796e-02
9             	6.143902e-02	4.127987e-02	3.278659e-03	6.644936e-02	3.941482e-02
10            	5.809056e-02	5.869316e-02	3.440034e-03	6.267564e-02	3.542825e-02
11            	5.450629e-02	6.522034e-02	3.576327e-03	5.697167e-02	3.265937e-02
12            	5.153641e-02	6.459265e-02	3.719795e-03	5.416115e-02	3.044327e-02
13            	4.808384e-02	6.015083e-02	3.858135e-03	5.316250e-02	2.857038e-02
14            	4.447232e-02	5.641058e-02	3.974143e-03	5.310021e-02	2.692600e-02
15            	4.163573e-02	5.322081e-02	4.088412e-03	5.303633e-02	2.541768e-02
16            	3.956208e-02	5.065454e-02	4.198974e-03	5.278846e-02	2.416098e-02
17            	3.805287e-02	4.866145e-02	4.303366e-03	5.241533e-02	2.304988e-02
18            	3.693271e-02	4.713256e-02	4.410553e-03	5.198791e-02	2.201954e-02
19            	3.615357e-02	4.595832e-02	4.520121e-03	5.155268e-02	2.106140e-02
20            	3.580319e-02	4.511946e-02	4.643960e-03	5.118600e-02	2.019723e-02
21            	3.570934e-02	4.450649e-02	4.774421e-03	5.081348e-02	1.942824e-02
22            	3.573423e-02	4.395071e-02	4.895860e-03	5.024197e-02	1.872607e-02
23            	3.578111e-02	4.346239e-02	5.007081e-03	4.951886e-02	1.808658e-02
24            	3.573255e-02	4.290287e-02	5.106578e-03	4.862668e-02	1.750058e-02
25            	3.553606e-02	4.237507e-02	5.204126e-03	4.772640e-02	1.696172e-02
26            	3.516964e-02	4.170636e-02	5.287877e-03	4.669804e-02	1.646183e-02
27            	3.464558e-02	4.099509e-02	5.363851e-03	4.562826e-02	1.599481e-02
28            	3.396633e-02	4.027959e-02	5.429557e-03	4.456948e-02	1.556092e-02
29            	3.318120e-02	3.954187e-02	5.481511e-03	4.353505e-02	1.515739e-02
30            	3.235292e-02	3.876132e-02	5.520296e-03	4.250673e-02	1.477719e-02
31            	3.148775e-02	3.792828e-02	5.544648e-03	4.149156e-02	1.441671e-02
32            	3.055091e-02	3.710124e-02	5.559094e-03	4.042095e-02	1.407237e-02
33            	2.959793e-02	3.625122e-02	5.560576e-03	3.926960e-02	1.374200e-02
34            	2.866621e-02	3.538293e-02	5.548498e-03	3.806664e-02	1.342700e-02
35            	2.771356e-02	3.445688e-02	5.525457e-03	3.682054e-02	1.312318e-02
36            	2.677078e-02	3.350545e-02	5.497743e-03	3.560833e-02	1.282930e-02
37            	2.579017e-02	3.253229e-02	5.455926e-03	3.437717e-02	1.254398e-02
38            	2.482062e-02	3.156388e-02	5.406365e-03	3.314563e-02	1.226630e-02
39            	2.384691e-02	3.059528e-02	5.347334e-03	3.196880e-02	1.199468e-02
40            	2.282963e-02	2.962772e-02	5.284290e-03	3.082837e-02	1.172956e-02
41            	2.178981e-02	2.867310e-02	5.223280e-03	2.971579e-02	1.147099e-02
42            	2.076134e-02	2.770791e-02	5.152415e-03	2.863649e-02	1.121718e-02
43            	1.977742e-02	2.673523e-02	5.073526e-03	2.760247e-02	1.096761e-02
44            	1.888489e-02	2.577821e-02	4.988766e-03	2.656977e-02	1.072330e-02
45            	1.810694e-02	2.484267e-02	4.894245e-03	2.555441e-02	1.048478e-02
46            	1.744081e-02	2.390633e-02	4.788654e-03	2.454675e-02	1.025259e-02
47            	1.686386e-02	2.298145e-02	4.678688e-03	2.356550e-02	1.002625e-02
48            	1.635818e-02	2.208188e-02	4.564629e-03	2.260944e-02	9.805331e-03
49            	1.592777e-02	2.122171e-02	4.453817e-03	2.168764e-02	9.589608e-03
50            	1.556074e-02	2.039692e-02	4.347308e-03	2.079262e-02	9.379313e-03
51            	1.525300e-02	1.960160e-02	4.239764e-03	1.993283e-02	9.175084e-03
52            	1.499090e-02	1.883644e-02	4.132401e-03	1.909107e-02	8.977641e-03
53            	1.476071e-02	1.807912e-02	4.020944e-03	1.828022e-02	8.784524e-03
54            	1.455481e-02	1.734051e-02	3.901470e-03	1.748555e-02	8.593895e-03
55            	1.437167e-02	1.661623e-02	3.781954e-03	1.671439e-02	8.407339e-03
56            	1.420611e-02	1.590028e-02	3.657159e-03	1.595483e-02	8.225913e-03
57            	1.405639e-02	1.520594e-02	3.530683e-03	1.521790e-02	8.049380e-03
58            	1.390900e-02	1.452986e-02	3.403489e-03	1.449602e-02	7.878096e-03
59            	1.377013e-02	1.382614e-02	3.264372e-03	1.374957e-02	7.711111e-03
60            	1.362969e-02	1.315623e-02	3.131901e-03	1.304707e-02	7.548113e-03
61            	1.349128e-02	1.251389e-02	2.998859e-03	1.236636e-02	7.389020e-03
62            	1.334693e-02	1.188432e-02	2.867035e-03	1.170353e-02	7.233715e-03
63            	1.319113e-02	1.124999e-02	2.732839e-03	1.104799e-02	7.082644e-03
64            	1.299910e-02	1.060174e-02	2.592446e-03	1.038790e-02	6.935016e-03
65            	1.274764e-02	9.901559e-03	2.435888e-03	9.702705e-03	6.790589e-03
66            	1.248833e-02	9.166925e-03	2.269153e-03	9.018644e-03	6.649870e-03
67            	1.215151e-02	8.427266e-03	2.096635e-03	8.305933e-03	6.512962e-03
68            	1.179167e-02	7.684955e-03	1.929413e-03	7.563378e-03	6.379711e-03
69            	1.140979e-02	6.956412e-03	1.770161e-03	6.854063e-03	6.249668e-03
70            	1.099591e-02	6.265569e-03	1.618963e-03	6.181790e-03	6.122909e-03
71            	1.059398e-02	5.630711e-03	1.476768e-03	5.553005e-03	5.999076e-03
72            	1.018554e-02	5.032312e-03	1.341687e-03	4.959721e-03	5.878180e-03
73            	9.720979e-03	4.462920e-03	1.211763e-03	4.417195e-03	5.759930e-03
74            	9.324674e-03	3.981158e-03	1.095660e-03	3.938604e-03	5.644405e-03
75            	8.977679e-03	3.610178e-03	1.005039e-03	3.556974e-03	5.531657e-03
76            	8.658297e-03	3.297827e-03	9.263550e-04	3.238710e-03	5.421356e-03
77            	8.366040e-03	3.028908e-03	8.590210e-04	2.971894e-03	5.313565e-03
78            	8.107945e-03	2.804065e-03	8.008230e-04	2.744178e-03	5.208104e-03
79            	7.870508e-03	2.603291e-03	7.477891e-04	2.545376e-03	5.104789e-03
80            	7.641566e-03	2.421915e-03	6.981949e-04	2.369392e-03	5.003714e-03
81            	7.425071e-03	2.261584e-03	6.526628e-04	2.210725e-03	4.904902e-03
82            	7.233766e-03	2.125329e-03	6.144206e-04	2.073981e-03	4.808314e-03
83            	7.060337e-03	2.003525e-03	5.790025e-04	1.951961e-03	4.714043e-03
84            	6.887168e-03	1.889118e-03	5.452719e-04	1.837979e-03	4.621959e-03
85            	6.712060e-03	1.785638e-03	5.151951e-04	1.737175e-03	4.531769e-03
86            	6.552247e-03	1.692879e-03	4.874605e-04	1.646473e-03	4.443749e-03
87            	6.422274e-03	1.621240e-03	4.625906e-04	1.567288e-03	4.357783e-03
88            	6.329430e-03	1.581681e-03	4.421023e-04	1.520113e-03	4.273650e-03
89            	6.250686e-03	1.568357e-03	4.251972e-04	1.515869e-03	4.191395e-03
90            	6.186666e-03	1.586751e-03	4.159613e-04	1.553413e-03	4.111130e-03
91            	6.233149e-03	1.657075e-03	4.250632e-04	1.632297e-03	4.033203e-03
92            	6.788585e-03	1.966990e-03	5.416842e-04	1.953483e-03	3.957324e-03
93            	7.786266e-03	2.539277e-03	7.429515e-04	2.507451e-03	3.883590e-03
94            	8.467997e-03	3.031881e-03	8.877227e-04	2.995683e-03	3.811733e-03
95            	8.825057e-03	3.368554e-03	9.726725e-04	3.330819e-03	3.740919e-03
96            	9.142821e-03	3.649146e-03	1.038998e-03	3.614293e-03	3.671180e-03
97            	9.598488e-03	3.952743e-03	1.121763e-03	3.918739e-03	3.603130e-03
98            	9.983306e-03	4.221795e-03	1.196921e-03	4.196384e-03	3.536671e-03
99            	9.994978e-03	4.361019e-03	1.229832e-03	4.350640e-03	3.471424e-03
100           	9.975459e-03	4.430863e-03	1.242862e-03	4.429242e-03	3.407541e-03
101           	1.011861e-02	4.530004e-03	1.271285e-03	4.532613e-03	3.345042e-03
102           	1.031724e-02	4.653990e-03	1.311427e-03	4.670770e-03	3.284125e-03
103           	1.035165e-02	4.741919e-03	1.336206e-03	4.770206e-03	3.224465e-03
104           	1.032904e-02	4.796403e-03	1.348832e-03	4.829825e-03	3.165816e-03
105           	1.033134e-02	4.843492e-03	1.362039e-03	4.880850e-03	3.108539e-03
106           	1.034603e-02	4.893920e-03	1.377350e-03	4.936277e-03	3.052626e-03
107           	1.034590e-02	4.939865e-03	1.392740e-03	4.985551e-03	2.997838e-03
108           	1.033376e-02	4.979351e-03	1.405304e-03	5.026874e-03	2.944212e-03
109           	1.030996e-02	5.012522e-03	1.416048e-03	5.061246e-03	2.891783e-03
110           	1.027837e-02	5.044993e-03	1.426028e-03	5.092516e-03	2.840411e-03
111           	1.024138e-02	5.072864e-03	1.433610e-03	5.118048e-03	2.790035e-03
112           	1.019794e-02	5.095615e-03	1.440852e-03	5.137917e-03	2.740690e-03
113           	1.015108e-02	5.115063e-03	1.446696e-03	5.155030e-03	2.692375e-03
114           	1.010203e-02	5.133765e-03	1.451996e-03	5.169860e-03	2.644908e-03
115           	1.005264e-02	5.149770e-03	1.457100e-03	5.182490e-03	2.598355e-03
116           	1.000406e-02	5.163364e-03	1.460793e-03	5.192754e-03	2.552722e-03
117           	9.953044e-03	5.176807e-03	1.464318e-03	5.201891e-03	2.507959e-03
118           	9.900730e-03	5.187356e-03	1.468120e-03	5.208391e-03	2.464071e-03
119           	9.847701e-03	5.196465e-03	1.470815e-03	5.213473e-03	2.421123e-03
120           	9.794864e-03	5.205693e-03	1.473478e-03	5.218649e-03	2.379094e-03
121           	9.740672e-03	5.212631e-03	1.476121e-03	5.222102e-03	2.337808e-03
122           	9.687723e-03	5.218260e-03	1.477998e-03	5.224477e-03	2.297223e-03
123           	9.634543e-03	5.224986e-03	1.479907e-03	5.227252e-03	2.257340e-03
124           	9.582100e-03	5.229719e-03	1.482146e-03	5.228908e-03	2.218260e-03
125           	9.529021e-03	5.233801e-03	1.483556e-03	5.230181e-03	2.179810e-03
126           	9.476056e-03	5.238256e-03	1.485003e-03	5.231677e-03	2.142076e-03
127           	9.423453e-03	5.241194e-03	1.486554e-03	5.232565e-03	2.104992e-03
128           	9.371992e-03	5.243932e-03	1.487544e-03	5.233056e-03	2.068637e-03
129           	9.320937e-03	5.247991e-03	1.488810e-03	5.234465e-03	2.032893e-03
130           	9.269768e-03	5.250149e-03	1.490227e-03	5.234802e-03	1.997742e-03
131           	9.218407e-03	5.251647e-03	1.490753e-03	5.234915e-03	1.963190e-03
132           	9.168740e-03	5.253706e-03	1.491568e-03	5.235589e-03	1.929295e-03
133           	9.118146e-03	5.254793e-03	1.492483e-03	5.235375e-03	1.895982e-03
134           	9.066580e-03	5.254482e-03	1.492327e-03	5.233938e-03	1.863187e-03
135           	9.015180e-03	5.255765e-03	1.492713e-03	5.233603e-03	1.830929e-03
136           	8.964475e-03	5.255609e-03	1.493304e-03	5.232916e-03	1.799274e-03
137           	8.914807e-03	5.255204e-03	1.493277e-03	5.232265e-03	1.768190e-03
138           	8.866084e-03	5.255370e-03	1.493666e-03	5.231383e-03	1.737559e-03
139           	8.818209e-03	5.255029e-03	1.494222e-03	5.229810e-03	1.707420e-03
140           	8.771681e-03	5.254754e-03	1.494510e-03	5.228500e-03	1.677838e-03
141           	8.725809e-03	5.254971e-03	1.494944e-03	5.227972e-03	1.648708e-03
142           	8.679372e-03	5.253682e-03	1.495288e-03	5.226839e-03	1.620094e-03
143           	8.633844e-03	5.252446e-03	1.495027e-03	5.225432e-03	1.591950e-03
144           	8.589270e-03	5.251504e-03	1.495331e-03	5.223663e-03	1.564256e-03
145           	8.545954e-03	5.251027e-03	1.495758e-03	5.222296e-03	1.537007e-03
146           	8.502830e-03	5.250817e-03	1.495828e-03	5.221858e-03	1.510166e-03
147           	8.459966e-03	5.249455e-03	1.495970e-03	5.220823e-03	1.483725e-03
148           	8.417230e-03	5.247519e-03	1.495617e-03	5.219352e-03	1.457674e-03
149           	8.375802e-03	5.246187e-03	1.495660e-03	5.217252e-03	1.431921e-03
150           	8.335359e-03	5.244926e-03	1.495877e-03	5.215307e-03	1.406529e-03
151           	8.294783e-03	5.244745e-03	1.495936e-03	5.214470e-03	1.381448e-03
152           	8.253410e-03	5.242855e-03	1.496081e-03	5.212903e-03	1.356744e-03
153           	8.212521e-03	5.241157e-03	1.495679e-03	5.211697e-03	1.332424e-03
154           	8.172298e-03	5.238830e-03	1.495692e-03	5.209538e-03	1.308362e-03
155           	8.132468e-03	5.237839e-03	1.495580e-03	5.208070e-03	1.284594e-03
156           	8.092181e-03	5.235914e-03	1.495805e-03	5.206106e-03	1.261146e-03
157           	8.051568e-03	5.234463e-03	1.495532e-03	5.205238e-03	1.238051e-03
158           	8.010480e-03	5.231845e-03	1.495523e-03	5.203482e-03	1.215320e-03
159           	7.969268e-03	5.230132e-03	1.495098e-03	5.202482e-03	1.192906e-03
160           	7.927564e-03	5.227406e-03	1.495124e-03	5.200280e-03	1.170884e-03
161           	7.886002e-03	5.225666e-03	1.494810e-03	5.198902e-03	1.149173e-03
162           	7.843819e-03	5.223192e-03	1.494929e-03	5.196878e-03	1.127738e-03
163           	7.801390e-03	5.221756e-03	1.494610e-03	5.195909e-03	1.106613e-03
164           	7.758087e-03	5.219027e-03	1.494585e-03	5.193951e-03	1.085769e-03
165           	7.715004e-03	5.216913e-03	1.494074e-03	5.192562e-03	1.065220e-03
166           	7.671904e-03	5.214083e-03	1.493980e-03	5.190294e-03	1.044889e-03
167           	7.629100e-03	5.212574e-03	1.493562e-03	5.188973e-03	1.024802e-03
168           	7.586335e-03	5.209999e-03	1.493508e-03	5.186713e-03	1.004961e-03
169           	7.543931e-03	5.208219e-03	1.492987e-03	5.185351e-03	9.852908e-04
170           	7.501987e-03	5.205554e-03	1.492803e-03	5.182941e-03	9.658563e-04
171           	7.460570e-03	5.204270e-03	1.492308e-03	5.181454e-03	9.466508e-04
172           	7.420413e-03	5.201903e-03	1.492230e-03	5.178750e-03	9.276933e-04
173           	7.381994e-03	5.200607e-03	1.491828e-03	5.177151e-03	9.089856e-04
174           	7.344838e-03	5.198427e-03	1.491840e-03	5.174453e-03	8.906027e-04
175           	7.308220e-03	5.197732e-03	1.491505e-03	5.172807e-03	8.725859e-04
176           	7.272714e-03	5.195990e-03	1.491551e-03	5.169991e-03	8.549402e-04
177           	7.238056e-03	5.194925e-03	1.491076e-03	5.168635e-03	8.376082e-04
178           	7.204592e-03	5.192767e-03	1.490928e-03	5.166160e-03	8.206872e-04
179           	7.172215e-03	5.191672e-03	1.490398e-03	5.164849e-03	8.041450e-04
180           	7.141183e-03	5.189310e-03	1.490198e-03	5.162338e-03	7.879966e-04
181           	7.111380e-03	5.187913e-03	1.489632e-03	5.160984e-03	7.721825e-04
182           	7.082866e-03	5.185341e-03	1.489415e-03	5.158466e-03	7.566959e-04
183           	7.055522e-03	5.183876e-03	1.488828e-03	5.157183e-03	7.415446e-04
184           	7.029403e-03	5.181174e-03	1.488543e-03	5.154759e-03	7.266827e-04
185           	7.004167e-03	5.179519e-03	1.487896e-03	5.153534e-03	7.120742e-04
186           	6.980104e-03	5.176657e-03	1.487572e-03	5.151109e-03	6.977137e-04
187           	6.956829e-03	5.174878e-03	1.486886e-03	5.149871e-03	6.836171e-04
188           	6.934578e-03	5.171895e-03	1.486500e-03	5.147461e-03	6.697635e-04
189           	6.913053e-03	5.169963e-03	1.485762e-03	5.146219e-03	6.561025e-04
190           	6.892279e-03	5.166833e-03	1.485318e-03	5.143801e-03	6.426713e-04
191           	6.872005e-03	5.164777e-03	1.484528e-03	5.142546e-03	6.294504e-04
192           	6.852477e-03	5.161538e-03	1.484028e-03	5.140129e-03	6.164583e-04
193           	6.833025e-03	5.159357e-03	1.483197e-03	5.138862e-03	6.036716e-04
194           	6.814230e-03	5.156009e-03	1.482652e-03	5.136437e-03	5.911238e-04
195           	6.795812e-03	5.153719e-03	1.481782e-03	5.135152e-03	5.788103e-04
196           	6.777912e-03	5.150291e-03	1.481192e-03	5.132718e-03	5.667433e-04
197           	6.760365e-03	5.147937e-03	1.480290e-03	5.131426e-03	5.548962e-04
198           	6.743167e-03	5.144480e-03	1.479666e-03	5.129014e-03	5.433012e-04
199           	6.725955e-03	5.142073e-03	1.478742e-03	5.127728e-03	5.320131e-04
200           	6.709056e-03	5.138594e-03	1.478092e-03	5.125345e-03	5.210310e-04
201           	6.692370e-03	5.136164e-03	1.477154e-03	5.124072e-03	5.103604e-04
202           	6.676114e-03	5.132686e-03	1.476487e-03	5.121706e-03	5.000510e-04
203           	6.659900e-03	5.130253e-03	1.475543e-03	5.120421e-03	4.900732e-04
204           	6.644008e-03	5.126802e-03	1.474867e-03	5.118072e-03	4.804495e-04
205           	6.628208e-03	5.124383e-03	1.473926e-03	5.116802e-03	4.711658e-04
206           	6.612733e-03	5.120967e-03	1.473241e-03	5.114475e-03	4.622479e-04
207           	6.597379e-03	5.118566e-03	1.472299e-03	5.113193e-03	4.536742e-04
208           	6.582424e-03	5.115199e-03	1.471604e-03	5.110888e-03	4.454672e-04
209           	6.567565e-03	5.112829e-03	1.470662e-03	5.109608e-03	4.376133e-04
210           	6.553070e-03	5.109511e-03	1.469956e-03	5.107329e-03	4.301303e-04
211           	6.538240e-03	5.107175e-03	1.469011e-03	5.106052e-03	4.230032e-04
212           	6.524617e-03	5.099127e-03	1.466754e-03	5.100900e-03	4.161619e-04
213           	6.510534e-03	5.100232e-03	1.467063e-03	5.101655e-03	4.096111e-04
214           	6.497876e-03	5.092914e-03	1.464923e-03	5.096906e-03	4.032476e-04
215           	6.484745e-03	5.094360e-03	1.465310e-03	5.097870e-03	3.970685e-04
216           	6.472940e-03	5.087273e-03	1.463201e-03	5.093258e-03	3.909924e-04
217           	6.460655e-03	5.088885e-03	1.463609e-03	5.094299e-03	3.850557e-04
218           	6.449034e-03	5.081938e-03	1.461509e-03	5.089764e-03	3.791849e-04
219           	6.437603e-03	5.078857e-03	1.460389e-03	5.087941e-03	3.733900e-04
220           	6.426580e-03	5.075379e-03	1.459532e-03	5.085464e-03	3.676715e-04
221           	6.415659e-03	5.073008e-03	1.458544e-03	5.084017e-03	3.620226e-04
222           	6.404967e-03	5.069899e-03	1.457759e-03	5.081793e-03	3.564690e-04
223           	6.394239e-03	5.067728e-03	1.456811e-03	5.080454e-03	3.510028e-04
224           	6.383658e-03	5.064781e-03	1.456039e-03	5.078333e-03	3.456317e-04
225           	6.372988e-03	5.062711e-03	1.455106e-03	5.077027e-03	3.403489e-04
226           	6.362447e-03	5.059862e-03	1.454332e-03	5.074961e-03	3.351622e-04
227           	6.351829e-03	5.057846e-03	1.453405e-03	5.073665e-03	3.300644e-04
228           	6.341356e-03	5.055065e-03	1.452627e-03	5.071650e-03	3.250658e-04
229           	6.330783e-03	5.053084e-03	1.451709e-03	5.070350e-03	3.201664e-04
230           	6.320360e-03	5.050369e-03	1.450921e-03	5.068369e-03	3.153777e-04
231           	6.309893e-03	5.048419e-03	1.450007e-03	5.067056e-03	3.107000e-04
232           	6.299635e-03	5.045750e-03	1.449215e-03	5.065109e-03	3.061410e-04
233           	6.289388e-03	5.043829e-03	1.448310e-03	5.063794e-03	3.017024e-04
234           	6.279277e-03	5.041237e-03	1.447514e-03	5.061888e-03	2.973860e-04
235           	6.269151e-03	5.039329e-03	1.446619e-03	5.060578e-03	2.931950e-04
236           	6.259193e-03	5.036806e-03	1.445822e-03	5.058721e-03	2.891213e-04
237           	6.249243e-03	5.034908e-03	1.444937e-03	5.057417e-03	2.851689e-04
238           	6.239444e-03	5.032444e-03	1.444136e-03	5.055618e-03	2.813414e-04
239           	6.229664e-03	5.030552e-03	1.443261e-03	5.054324e-03	2.776387e-04
240           	6.220066e-03	5.028160e-03	1.442455e-03	5.052575e-03	2.740648e-04
241           	6.210494e-03	5.026280e-03	1.441587e-03	5.051281e-03	2.706147e-04
242           	6.201104e-03	5.023948e-03	1.440780e-03	5.049579e-03	2.672807e-04
243           	6.191786e-03	5.022070e-03	1.439927e-03	5.048286e-03	2.640624e-04
244           	6.182651e-03	5.019787e-03	1.439125e-03	5.046635e-03	2.609552e-04
245           	6.173581e-03	5.017915e-03	1.438288e-03	5.045330e-03	2.579610e-04
246           	6.164695e-03	5.015687e-03	1.437487e-03	5.043715e-03	2.550742e-04
247           	6.155874e-03	5.013832e-03	1.436657e-03	5.042405e-03	2.522934e-04
248           	6.147243e-03	5.011653e-03	1.435855e-03	5.040832e-03	2.496095e-04
249           	6.138708e-03	5.009803e-03	1.435032e-03	5.039518e-03	2.470165e-04
250           	6.130381e-03	5.007670e-03	1.434232e-03	5.037982e-03	2.445147e-04
251           	6.122132e-03	5.005841e-03	1.433421e-03	5.036681e-03	2.421004e-04
252           	6.114080e-03	5.003749e-03	1.432624e-03	5.035193e-03	2.397676e-04
253           	6.106121e-03	5.001936e-03	1.431819e-03	5.033898e-03	2.375096e-04
254           	6.098402e-03	4.999883e-03	1.431027e-03	5.032441e-03	2.353252e-04
255           	6.090754e-03	4.998094e-03	1.430230e-03	5.031156e-03	2.332083e-04
256           	6.083332e-03	4.996094e-03	1.429441e-03	5.029726e-03	2.311497e-04
257           	6.075997e-03	4.994345e-03	1.428652e-03	5.028453e-03	2.291414e-04
258           	6.068885e-03	4.992399e-03	1.427866e-03	5.027058e-03	2.271887e-04
259           	6.061852e-03	4.990689e-03	1.427082e-03	5.025809e-03	2.252924e-04
260           	6.055076e-03	4.988783e-03	1.426300e-03	5.024442e-03	2.234460e-04
261           	6.048371e-03	4.987099e-03	1.425522e-03	5.023214e-03	2.216466e-04
262           	6.041911e-03	4.985224e-03	1.424747e-03	5.021875e-03	2.198934e-04
263           	6.035499e-03	4.983566e-03	1.423979e-03	5.020672e-03	2.181857e-04
264           	6.029251e-03	4.981725e-03	1.423211e-03	5.019361e-03	2.165220e-04
265           	6.023039e-03	4.980097e-03	1.422454e-03	5.018178e-03	2.149029e-04
266           	6.016970e-03	4.978288e-03	1.421695e-03	5.016890e-03	2.133254e-04
267           	6.010937e-03	4.976698e-03	1.420947e-03	5.015727e-03	2.117887e-04
268           	6.005096e-03	4.974922e-03	1.420191e-03	5.014454e-03	2.102911e-04
269           	5.999298e-03	4.973366e-03	1.419448e-03	5.013311e-03	2.088330e-04
270           	5.993638e-03	4.971626e-03	1.418695e-03	5.012055e-03	2.074128e-04
271           	5.987994e-03	4.970105e-03	1.417956e-03	5.010934e-03	2.060291e-04
272           	5.982474e-03	4.968397e-03	1.417206e-03	5.009696e-03	2.046811e-04
273           	5.976969e-03	4.966898e-03	1.416476e-03	5.008591e-03	2.033698e-04
274           	5.971589e-03	4.965215e-03	1.415730e-03	5.007380e-03	2.020946e-04
275           	5.966221e-03	4.963740e-03	1.415000e-03	5.006322e-03	2.008540e-04
276           	5.960981e-03	4.962079e-03	1.414258e-03	5.005152e-03	1.996474e-04
277           	5.955753e-03	4.960620e-03	1.413536e-03	5.004118e-03	1.984769e-04
278           	5.950654e-03	4.958981e-03	1.412801e-03	5.002964e-03	1.973406e-04
279           	5.945580e-03	4.957551e-03	1.412088e-03	5.001933e-03	1.962370e-04
280           	5.940637e-03	4.955935e-03	1.411360e-03	5.000776e-03	1.951645e-04
281           	5.935700e-03	4.954523e-03	1.410650e-03	4.999748e-03	1.941224e-04
282           	5.930887e-03	4.952937e-03	1.409925e-03	4.998606e-03	1.931092e-04
283           	5.926076e-03	4.951555e-03	1.409220e-03	4.997605e-03	1.921232e-04
284           	5.921384e-03	4.949995e-03	1.408498e-03	4.996490e-03	1.911647e-04
285           	5.916701e-03	4.948632e-03	1.407798e-03	4.995506e-03	1.902311e-04
286           	5.912122e-03	4.947096e-03	1.407084e-03	4.994401e-03	1.893231e-04
287           	5.907565e-03	4.945755e-03	1.406393e-03	4.993431e-03	1.884392e-04
288           	5.903095e-03	4.944234e-03	1.405690e-03	4.992349e-03	1.875797e-04
289           	5.898644e-03	4.942905e-03	1.405010e-03	4.991400e-03	1.867437e-04
290           	5.894284e-03	4.941397e-03	1.404315e-03	4.990336e-03	1.859301e-04
291           	5.889931e-03	4.940084e-03	1.403643e-03	4.989405e-03	1.851359e-04
292           	5.885669e-03	4.938586e-03	1.402956e-03	4.988355e-03	1.843611e-04
293           	5.881417e-03	4.937287e-03	1.402293e-03	4.987434e-03	1.836040e-04
294           	5.877273e-03	4.935806e-03	1.401615e-03	4.986396e-03	1.828632e-04
295           	5.873123e-03	4.934513e-03	1.400956e-03	4.985482e-03	1.821387e-04
296           	5.869047e-03	4.933025e-03	1.400276e-03	4.984452e-03	1.814290e-04
297           	5.864970e-03	4.931736e-03	1.399613e-03	4.983540e-03	1.807331e-04
298           	5.860961e-03	4.930257e-03	1.398932e-03	4.982484e-03	1.800508e-04
299           	5.856956e-03	4.928576e-03	1.398344e-03	4.981541e-03	1.793806e-04
300           	5.853017e-03	4.927504e-03	1.397565e-03	4.980552e-03	1.787221e-04
301           	5.849092e-03	4.925980e-03	1.397034e-03	4.979782e-03	1.780747e-04
302           	5.845223e-03	4.925054e-03	1.396222e-03	4.978770e-03	1.774383e-04
303           	5.841319e-03	4.923462e-03	1.395686e-03	4.977912e-03	1.768120e-04
304           	5.837502e-03	4.922226e-03	1.394948e-03	4.976943e-03	1.761961e-04
305           	5.833727e-03	4.920819e-03	1.394421e-03	4.976280e-03	1.755900e-04
306           	5.830022e-03	4.919901e-03	1.393629e-03	4.975269e-03	1.749934e-04
307           	5.826288e-03	4.918349e-03	1.393094e-03	4.974447e-03	1.744049e-04
308           	5.822635e-03	4.916991e-03	1.392390e-03	4.973505e-03	1.738256e-04
309           	5.819031e-03	4.915725e-03	1.391842e-03	4.972800e-03	1.732540e-04
310           	5.815448e-03	4.914850e-03	1.391073e-03	4.971871e-03	1.726908e-04
311           	5.811907e-03	4.913288e-03	1.390589e-03	4.971171e-03	1.721343e-04
312           	5.808393e-03	4.912371e-03	1.389828e-03	4.970237e-03	1.715851e-04
313           	5.804944e-03	4.910815e-03	1.389342e-03	4.969555e-03	1.710416e-04
314           	5.801494e-03	4.909918e-03	1.388596e-03	4.968648e-03	1.705041e-04
315           	5.798136e-03	4.908378e-03	1.388113e-03	4.967977e-03	1.699717e-04
316           	5.794722e-03	4.907508e-03	1.387381e-03	4.967109e-03	1.694458e-04
317           	5.791482e-03	4.905986e-03	1.386894e-03	4.966435e-03	1.689251e-04
318           	5.788107e-03	4.905134e-03	1.386178e-03	4.965621e-03	1.684100e-04
319           	5.784895e-03	4.903620e-03	1.385692e-03	4.964971e-03	1.678995e-04
320           	5.781566e-03	4.902781e-03	1.384985e-03	4.964158e-03	1.673948e-04
321           	5.778351e-03	4.901284e-03	1.384491e-03	4.963431e-03	1.668948e-04
322           	5.775064e-03	4.900404e-03	1.383797e-03	4.962615e-03	1.664001e-04
323           	5.771895e-03	4.898911e-03	1.383317e-03	4.962022e-03	1.659090e-04
324           	5.768648e-03	4.898035e-03	1.382617e-03	4.961091e-03	1.654230e-04
325           	5.765500e-03	4.896605e-03	1.382098e-03	4.960321e-03	1.649402e-04
326           	5.762261e-03	4.895289e-03	1.381482e-03	4.959493e-03	1.644621e-04
327           	5.759187e-03	4.894176e-03	1.380949e-03	4.958833e-03	1.639877e-04
328           	5.755981e-03	4.893373e-03	1.380276e-03	4.958017e-03	1.635179e-04
329           	5.752935e-03	4.891925e-03	1.379811e-03	4.957451e-03	1.630509e-04
330           	5.749758e-03	4.891083e-03	1.379140e-03	4.956556e-03	1.625879e-04
331           	5.746764e-03	4.889672e-03	1.378652e-03	4.955828e-03	1.621274e-04
332           	5.743598e-03	4.888637e-03	1.378029e-03	4.955042e-03	1.616713e-04
333           	5.740689e-03	4.887359e-03	1.377553e-03	4.954588e-03	1.612178e-04
334           	5.737585e-03	4.886556e-03	1.376901e-03	4.953683e-03	1.607686e-04
335           	5.734662e-03	4.885241e-03	1.376388e-03	4.952985e-03	1.603218e-04
336           	5.731561e-03	4.883814e-03	1.375866e-03	4.952206e-03	1.598790e-04
337           	5.728677e-03	4.882954e-03	1.375267e-03	4.951542e-03	1.594392e-04
338           	5.725601e-03	4.881634e-03	1.374782e-03	4.950829e-03	1.590023e-04
339           	5.722748e-03	4.881136e-03	1.374141e-03	4.950162e-03	1.585679e-04
340           	5.719717e-03	4.879486e-03	1.373727e-03	4.949665e-03	1.581364e-04
341           	5.716945e-03	4.878991e-03	1.373081e-03	4.948837e-03	1.577074e-04
342           	5.713960e-03	4.877390e-03	1.372625e-03	4.948098e-03	1.572809e-04
343           	5.711226e-03	4.876312e-03	1.372080e-03	4.947403e-03	1.568567e-04
344           	5.708277e-03	4.875104e-03	1.371565e-03	4.946701e-03	1.564358e-04
345           	5.705554e-03	4.874200e-03	1.371024e-03	4.946059e-03	1.560171e-04
346           	5.702610e-03	4.873002e-03	1.370522e-03	4.945362e-03	1.556020e-04
347           	5.699917e-03	4.872120e-03	1.369983e-03	4.944738e-03	1.551891e-04
348           	5.697000e-03	4.870931e-03	1.369500e-03	4.944050e-03	1.547792e-04
349           	5.694318e-03	4.870101e-03	1.368952e-03	4.943441e-03	1.543710e-04
350           	5.691416e-03	4.868888e-03	1.368504e-03	4.942790e-03	1.539657e-04
351           	5.688748e-03	4.868430e-03	1.367916e-03	4.942179e-03	1.535628e-04
352           	5.685900e-03	4.866884e-03	1.367526e-03	4.941740e-03	1.531624e-04
353           	5.683317e-03	4.866473e-03	1.366929e-03	4.940975e-03	1.527643e-04
354           	5.680477e-03	4.864952e-03	1.366510e-03	4.940295e-03	1.523687e-04
355           	5.677945e-03	4.863978e-03	1.365993e-03	4.939682e-03	1.519748e-04
356           	5.675156e-03	4.862837e-03	1.365528e-03	4.939042e-03	1.515833e-04
357           	5.672641e-03	4.862081e-03	1.364999e-03	4.938478e-03	1.511934e-04
358           	5.669860e-03	4.860889e-03	1.364572e-03	4.937875e-03	1.508059e-04
359           	5.667377e-03	4.860477e-03	1.364012e-03	4.937324e-03	1.504204e-04
360           	5.664602e-03	4.858990e-03	1.363639e-03	4.936907e-03	1.500372e-04
361           	5.662138e-03	4.858628e-03	1.363069e-03	4.936227e-03	1.496559e-04
362           	5.659351e-03	4.857149e-03	1.362683e-03	4.935607e-03	1.492768e-04
363           	5.656918e-03	4.856374e-03	1.362170e-03	4.935064e-03	1.488996e-04
364           	5.654169e-03	4.855202e-03	1.361767e-03	4.934532e-03	1.485247e-04
365           	5.651757e-03	4.854863e-03	1.361226e-03	4.934012e-03	1.481517e-04
366           	5.649042e-03	4.853433e-03	1.360879e-03	4.933580e-03	1.477808e-04
367           	5.646710e-03	4.853122e-03	1.360328e-03	4.933003e-03	1.474119e-04
368           	5.644046e-03	4.851706e-03	1.359988e-03	4.932415e-03	1.470454e-04
369           	5.641803e-03	4.851286e-03	1.359471e-03	4.931998e-03	1.466806e-04
370           	5.639193e-03	4.849957e-03	1.359134e-03	4.931578e-03	1.463184e-04
371           	5.637013e-03	4.849800e-03	1.358595e-03	4.931126e-03	1.459579e-04
372           	5.634379e-03	4.848346e-03	1.358264e-03	4.930478e-03	1.455997e-04
373           	5.631995e-03	4.847882e-03	1.357761e-03	4.930123e-03	1.452424e-04