# Residuals   
# Time        	p             	Ux            	Uy            	Uz            	h             
1             	1.000000e+00	1.000000e+00	1.000000e+00	1.000000e+00	1.000000e+00
2             	1.000000e+00	1.162627e-01	2.971419e-03	1.900197e-01	1.540774e-01
3             	2.903166e-01	2.115219e-01	5.207012e-03	1.646744e-01	6.965652e-02
4             	2.069292e-01	1.161439e-01	2.978455e-03	8.883446e-02	4.532432e-02
5             	1.312614e-01	3.687574e-02	1.357349e-03	4.162512e-02	4.513476e-02
6             	1.066219e-01	8.740043e-02	9.513686e-04	7.626847e-02	3.464729e-02
7             	7.037552e-02	1.598211e-02	8.849706e-04	7.610102e-03	2.853638e-02
8             	5.800416e-02	7.487393e-02	8.051261e-04	1.078591e-02	2.289325e-02
9             	4.774017e-02	3.938957e-02	7.549983e-04	8.424078e-03	1.939435e-02
10            	4.013907e-02	1.966027e-02	7.131992e-04	8.546886e-03	1.692479e-02
11            	3.331906e-02	1.698044e-02	6.632597e-04	9.349070e-03	1.513514e-02
12            	2.837063e-02	1.501745e-02	5.890671e-04	1.001650e-02	1.370356e-02
13            	2.467981e-02	1.290435e-02	4.898902e-04	1.007648e-02	1.253705e-02
14            	2.187135e-02	1.143182e-02	4.117227e-04	1.012995e-02	1.156378e-02
15            	1.967783e-02	1.047221e-02	3.545512e-04	1.041356e-02	1.066020e-02
16            	1.793938e-02	9.939285e-03	3.172802e-04	1.138142e-02	9.849769e-03
17            	1.657268e-02	9.678479e-03	2.908262e-04	1.328012e-02	9.149815e-03
18            	1.551335e-02	9.620976e-03	2.711956e-04	1.571149e-02	8.537344e-03
19            	1.469747e-02	9.594538e-03	2.553558e-04	1.702682e-02	7.994832e-03
20            	1.407611e-02	9.539826e-03	2.424739e-04	1.590688e-02	7.527423e-03
21            	1.361042e-02	9.390497e-03	2.316725e-04	1.424560e-02	7.112866e-03
22            	1.326580e-02	9.260456e-03	2.223275e-04	1.295089e-02	6.737121e-03
23            	1.301260e-02	9.049548e-03	2.140323e-04	1.195015e-02	6.396964e-03
24            	1.282386e-02	8.917550e-03	2.066140e-04	1.120771e-02	6.080086e-03
25            	1.267967e-02	8.658200e-03	1.995673e-04	1.056725e-02	5.791117e-03
26            	1.255569e-02	8.550985e-03	1.933714e-04	1.010756e-02	5.517141e-03
27            	1.244902e-02	8.252211e-03	1.878068e-04	9.643744e-03	5.268082e-03
28            	1.234196e-02	8.164012e-03	1.826112e-04	9.322675e-03	5.029246e-03
29            	1.224100e-02	7.855220e-03	1.778668e-04	8.944693e-03	4.812351e-03
30            	1.213118e-02	7.806573e-03	1.735495e-04	8.708958e-03	4.602932e-03
31            	1.202650e-02	7.467510e-03	1.695857e-04	8.374250e-03	4.414457e-03
32            	1.190911e-02	7.500873e-03	1.658305e-04	8.206491e-03	4.231581e-03
33            	1.179215e-02	7.084521e-03	1.624752e-04	7.870397e-03	4.067809e-03
34            	1.166066e-02	7.225441e-03	1.590597e-04	7.764049e-03	3.905691e-03
35            	1.152200e-02	6.675321e-03	1.556353e-04	7.368955e-03	3.760797e-03
36            	1.137497e-02	6.920204e-03	1.520511e-04	7.299560e-03	3.616503e-03
37            	1.122742e-02	6.218497e-03	1.484200e-04	6.847757e-03	3.487898e-03
38            	1.108806e-02	6.613203e-03	1.446918e-04	6.859076e-03	3.359221e-03
39            	1.095900e-02	5.740015e-03	1.413787e-04	6.368928e-03	3.247095e-03
40            	1.084834e-02	6.404716e-03	1.381792e-04	6.534202e-03	3.133101e-03
41            	1.074815e-02	5.264352e-03	1.354135e-04	5.968144e-03	3.035635e-03
42            	1.066757e-02	6.294272e-03	1.322581e-04	6.314357e-03	2.933243e-03
43            	1.059811e-02	4.784415e-03	1.299055e-04	5.607171e-03	2.848479e-03
44            	1.057000e-02	6.273795e-03	1.266756e-04	6.153909e-03	2.759642e-03
45            	1.058141e-02	4.234224e-03	1.242407e-04	5.178220e-03	2.689882e-03
46            	1.066448e-02	6.289158e-03	1.211276e-04	6.011971e-03	2.619792e-03
47            	1.077274e-02	3.606275e-03	1.189747e-04	4.713692e-03	2.562497e-03
48            	1.098727e-02	6.289646e-03	1.161434e-04	5.967731e-03	2.511662e-03
49            	1.120393e-02	2.953234e-03	1.143642e-04	4.220328e-03	2.464872e-03
50            	1.155105e-02	5.918164e-03	1.117264e-04	5.977792e-03	2.429668e-03
51            	1.182132e-02	2.402334e-03	1.101873e-04	3.696063e-03	2.384895e-03
52            	1.224941e-02	5.086911e-03	1.077229e-04	5.945181e-03	2.357955e-03
53            	1.256841e-02	1.961691e-03	1.068546e-04	3.209704e-03	2.324274e-03
54            	1.311742e-02	3.972674e-03	1.044487e-04	5.775147e-03	2.308719e-03
55            	1.339646e-02	1.615978e-03	1.039467e-04	2.783652e-03	2.278383e-03
56            	1.395322e-02	3.038963e-03	1.016572e-04	5.368409e-03	2.266861e-03
57            	1.408368e-02	1.386168e-03	1.015283e-04	2.486954e-03	2.230563e-03
58            	1.459618e-02	2.482202e-03	9.940852e-05	4.812096e-03	2.214548e-03
59            	1.462315e-02	1.235616e-03	9.951133e-05	2.300378e-03	2.177363e-03
60            	1.517599e-02	2.113005e-03	9.746879e-05	4.230861e-03	2.160620e-03
61            	1.515224e-02	1.111877e-03	9.773141e-05	2.156122e-03	2.139979e-03
62            	1.577781e-02	1.825578e-03	9.577397e-05	3.679088e-03	2.119344e-03
63            	1.565990e-02	1.013027e-03	9.631921e-05	2.052078e-03	2.122170e-03
64            	1.629540e-02	1.632698e-03	9.447158e-05	3.274219e-03	2.091845e-03
65            	1.609598e-02	9.481977e-04	9.531430e-05	1.996963e-03	2.112807e-03
66            	1.673722e-02	1.512887e-03	9.361461e-05	3.018397e-03	2.062460e-03
67            	1.651318e-02	9.039894e-04	9.475074e-05	1.964816e-03	2.089821e-03
68            	1.718964e-02	1.422203e-03	9.320104e-05	2.845105e-03	2.026527e-03
69            	1.696701e-02	8.708678e-04	9.472027e-05	1.944169e-03	2.043325e-03
70            	1.767116e-02	1.349771e-03	9.331408e-05	2.730239e-03	1.978148e-03
71            	1.745826e-02	8.466646e-04	9.512868e-05	1.935082e-03	1.999009e-03
72            	1.817251e-02	1.295627e-03	9.387254e-05	2.663557e-03	1.927005e-03
73            	1.795262e-02	8.321203e-04	9.604780e-05	1.940598e-03	1.957801e-03
74            	1.866964e-02	1.262918e-03	9.483611e-05	2.641031e-03	1.875715e-03
75            	1.844512e-02	8.280132e-04	9.734142e-05	1.962497e-03	1.912623e-03
76            	1.918061e-02	1.244389e-03	9.621047e-05	2.645972e-03	1.831003e-03
77            	1.897581e-02	8.279661e-04	9.906381e-05	1.989614e-03	1.869047e-03
78            	1.972164e-02	1.229649e-03	9.798560e-05	2.661992e-03	1.788990e-03
79            	1.952581e-02	8.332766e-04	1.010200e-04	2.031683e-03	1.829905e-03
80            	2.026214e-02	1.264861e-03	1.022795e-04	2.795770e-03	1.750501e-03
81            	2.006501e-02	9.692519e-04	1.172427e-04	2.414426e-03	1.794471e-03
82            	2.079404e-02	1.697975e-03	1.373562e-04	3.809210e-03	1.712943e-03
83            	2.060036e-02	1.361105e-03	1.634444e-04	3.400810e-03	1.759660e-03
84            	2.131712e-02	2.193500e-03	1.785876e-04	4.976061e-03	1.677015e-03
85            	2.113001e-02	1.654743e-03	1.994220e-04	4.175198e-03	1.726309e-03
86            	2.186877e-02	2.533660e-03	2.087135e-04	5.829101e-03	1.651795e-03
87            	2.171260e-02	1.865291e-03	2.265117e-04	4.760054e-03	1.698214e-03
88            	2.246657e-02	2.788951e-03	2.325496e-04	6.484458e-03	1.630119e-03
89            	2.229801e-02	2.039250e-03	2.485386e-04	5.253731e-03	1.674806e-03
90            	2.306251e-02	3.010273e-03	2.517383e-04	7.050836e-03	1.602709e-03
91            	2.291460e-02	2.171851e-03	2.651497e-04	5.640582e-03	1.650257e-03
92            	2.369164e-02	3.143236e-03	2.651313e-04	7.415510e-03	1.575915e-03
93            	2.352439e-02	2.247916e-03	2.760857e-04	5.869730e-03	1.626163e-03
94            	2.426988e-02	3.219764e-03	2.737024e-04	7.634585e-03	1.552475e-03
95            	2.406030e-02	2.298789e-03	2.829538e-04	6.027341e-03	1.600278e-03
96            	2.478511e-02	3.284979e-03	2.792443e-04	7.802977e-03	1.527439e-03
97            	2.457123e-02	2.342656e-03	2.878584e-04	6.154141e-03	1.571461e-03
98            	2.530698e-02	3.339218e-03	2.836268e-04	7.937497e-03	1.501546e-03
99            	2.507298e-02	2.377501e-03	2.922163e-04	6.254976e-03	1.542519e-03
100           	2.577599e-02	3.382654e-03	2.874791e-04	8.056363e-03	1.473834e-03
101           	2.552129e-02	2.412265e-03	2.960583e-04	6.360885e-03	1.511044e-03
102           	2.622524e-02	3.429833e-03	2.908232e-04	8.175888e-03	1.445792e-03
103           	2.596636e-02	2.437088e-03	2.992104e-04	6.433631e-03	1.480374e-03
104           	2.667217e-02	3.445796e-03	2.931994e-04	8.251348e-03	1.417697e-03
105           	2.637571e-02	2.445715e-03	3.013934e-04	6.479848e-03	1.452416e-03
106           	2.701897e-02	3.472662e-03	2.949234e-04	8.323122e-03	1.389097e-03
107           	2.663982e-02	2.474280e-03	3.029732e-04	6.568357e-03	1.419338e-03
108           	2.721491e-02	3.528228e-03	2.960467e-04	8.460290e-03	1.354705e-03
109           	2.680848e-02	2.499577e-03	3.032879e-04	6.629965e-03	1.381485e-03
110           	2.737095e-02	3.551480e-03	2.957681e-04	8.524239e-03	1.318481e-03
111           	2.696551e-02	2.506275e-03	3.031558e-04	6.641027e-03	1.345484e-03
112           	2.750723e-02	3.557170e-03	2.954506e-04	8.548754e-03	1.283771e-03
113           	2.706028e-02	2.512030e-03	3.027692e-04	6.654109e-03	1.310145e-03
114           	2.755583e-02	3.578879e-03	2.949278e-04	8.606112e-03	1.248757e-03
115           	2.708389e-02	2.526750e-03	3.020992e-04	6.685924e-03	1.272111e-03
116           	2.755493e-02	3.605608e-03	2.942140e-04	8.671726e-03	1.211446e-03
117           	2.708410e-02	2.536350e-03	3.012560e-04	6.700159e-03	1.232988e-03
118           	2.755874e-02	3.616125e-03	2.932905e-04	8.703224e-03	1.173621e-03
119           	2.708199e-02	2.538260e-03	3.002408e-04	6.697089e-03	1.194850e-03
120           	2.753452e-02	3.621560e-03	2.922239e-04	8.725277e-03	1.135964e-03
121           	2.704288e-02	2.541324e-03	2.990818e-04	6.699895e-03	1.156568e-03
122           	2.747519e-02	3.634056e-03	2.910603e-04	8.762575e-03	1.097219e-03
123           	2.698147e-02	2.546842e-03	2.978160e-04	6.707640e-03	1.117273e-03
124           	2.740803e-02	3.644857e-03	2.898211e-04	8.794624e-03	1.057461e-03
125           	2.691872e-02	2.549011e-03	2.964886e-04	6.705837e-03	1.077672e-03
126           	2.733843e-02	3.648301e-03	2.885270e-04	8.809118e-03	1.017837e-03
127           	2.684720e-02	2.548567e-03	2.951338e-04	6.698592e-03	1.038247e-03
128           	2.721872e-02	3.651472e-03	2.872227e-04	8.821932e-03	9.785913e-04
129           	2.668785e-02	2.555283e-03	2.936358e-04	6.721269e-03	9.959431e-04
130           	2.708185e-02	3.678987e-03	2.857816e-04	8.894385e-03	9.361417e-04
131           	2.660500e-02	2.557800e-03	2.921545e-04	6.711405e-03	9.552126e-04
132           	2.703890e-02	3.656127e-03	2.843416e-04	8.845257e-03	8.976756e-04
133           	2.657239e-02	2.539508e-03	2.907639e-04	6.660996e-03	9.176171e-04
134           	2.696847e-02	3.635057e-03	2.830061e-04	8.800959e-03	8.614858e-04
135           	2.646412e-02	2.536902e-03	2.894353e-04	6.657998e-03	8.796776e-04
136           	2.682728e-02	3.652929e-03	2.817569e-04	8.842160e-03	8.229808e-04
137           	2.633779e-02	2.546079e-03	2.880704e-04	6.675661e-03	8.393655e-04
138           	2.674910e-02	3.645820e-03	2.803046e-04	8.874635e-03	7.844333e-04
139           	2.629847e-02	2.526798e-03	2.865082e-04	6.638239e-03	8.022943e-04
140           	2.668265e-02	3.618342e-03	2.789365e-04	8.798343e-03	7.492369e-04
141           	2.618221e-02	2.522605e-03	2.852235e-04	6.636343e-03	7.654601e-04
142           	2.652704e-02	3.637574e-03	2.777339e-04	8.840782e-03	7.116892e-04
143           	2.603334e-02	2.533597e-03	2.839054e-04	6.659590e-03	7.266555e-04
144           	2.640178e-02	3.648511e-03	2.764830e-04	8.864281e-03	6.736268e-04
145           	2.594446e-02	2.529793e-03	2.825836e-04	6.640442e-03	6.887095e-04
146           	2.632456e-02	3.629531e-03	2.752186e-04	8.820102e-03	6.383582e-04
147           	2.586577e-02	2.518679e-03	2.813314e-04	6.610907e-03	6.537462e-04
148           	2.622158e-02	3.620408e-03	2.740339e-04	8.798293e-03	6.047880e-04
149           	2.575102e-02	2.517422e-03	2.801148e-04	6.608236e-03	6.218502e-04
150           	2.609745e-02	3.626266e-03	2.728864e-04	8.808406e-03	5.715343e-04
151           	2.563972e-02	2.518027e-03	2.788951e-04	6.605805e-03	5.911384e-04
152           	2.599617e-02	3.621877e-03	2.717264e-04	8.793771e-03	5.399740e-04
153           	2.555227e-02	2.511589e-03	2.776994e-04	6.586214e-03	5.623127e-04
154           	2.590643e-02	3.609049e-03	2.705883e-04	8.760097e-03	5.110620e-04
155           	2.546105e-02	2.504747e-03	2.765439e-04	6.569114e-03	5.351673e-04
156           	2.580395e-02	3.602831e-03	2.694921e-04	8.741172e-03	4.874187e-04
157           	2.535918e-02	2.501642e-03	2.754057e-04	6.561248e-03	5.098570e-04
158           	2.570041e-02	3.599214e-03	2.684097e-04	8.727222e-03	4.652224e-04
159           	2.526494e-02	2.497468e-03	2.742781e-04	6.549310e-03	4.854578e-04
160           	2.560863e-02	3.589887e-03	2.673333e-04	8.699906e-03	4.450587e-04
161           	2.517932e-02	2.490668e-03	2.731742e-04	6.531758e-03	4.664324e-04
162           	2.551932e-02	3.578949e-03	2.662799e-04	8.668955e-03	4.304200e-04
163           	2.509134e-02	2.484486e-03	2.720949e-04	6.516956e-03	4.544072e-04
164           	2.542701e-02	3.570701e-03	2.652513e-04	8.643863e-03	4.189195e-04
165           	2.500307e-02	2.479262e-03	2.710314e-04	6.504255e-03	4.461707e-04
166           	2.533863e-02	3.561873e-03	2.642356e-04	8.617158e-03	4.097154e-04
167           	2.492051e-02	2.472989e-03	2.699823e-04	6.488711e-03	4.399339e-04
168           	2.525576e-02	3.550623e-03	2.632313e-04	8.584865e-03	4.033332e-04
169           	2.484178e-02	2.465907e-03	2.689523e-04	6.471792e-03	4.348605e-04
170           	2.517494e-02	3.539234e-03	2.622436e-04	8.552097e-03	3.981120e-04
171           	2.476391e-02	2.459157e-03	2.679373e-04	6.456072e-03	4.316506e-04
172           	2.509557e-02	3.528510e-03	2.612704e-04	8.520684e-03	3.934452e-04
173           	2.468870e-02	2.452459e-03	2.669357e-04	6.440386e-03	4.284726e-04
174           	2.502016e-02	3.517006e-03	2.603096e-04	8.487464e-03	3.889673e-04
175           	2.461772e-02	2.445193e-03	2.659485e-04	6.423343e-03	4.261153e-04
176           	2.494824e-02	3.504557e-03	2.593618e-04	8.452259e-03	3.850414e-04
177           	2.454893e-02	2.437661e-03	2.649766e-04	6.405931e-03	4.242410e-04
178           	2.487293e-02	3.491656e-03	2.584804e-04	8.415541e-03	3.817472e-04
179           	2.447815e-02	2.429818e-03	2.641088e-04	6.387926e-03	4.222929e-04
180           	2.480855e-02	3.479318e-03	2.576161e-04	8.380778e-03	3.798013e-04
181           	2.441664e-02	2.422306e-03	2.632035e-04	6.370880e-03	4.203944e-04
182           	2.474708e-02	3.466577e-03	2.567141e-04	8.345226e-03	3.792722e-04
183           	2.435880e-02	2.414628e-03	2.622491e-04	6.353448e-03	4.201778e-04
184           	2.468819e-02	3.453436e-03	2.557744e-04	8.309068e-03	3.785438e-04
185           	2.430276e-02	2.406872e-03	2.612747e-04	6.335878e-03	4.200736e-04
186           	2.463108e-02	3.440291e-03	2.548317e-04	8.273047e-03	3.777051e-04
187           	2.424875e-02	2.399082e-03	2.603120e-04	6.318242e-03	4.197471e-04
188           	2.457113e-02	3.426428e-03	2.539570e-04	8.234925e-03	3.769492e-04
189           	2.419263e-02	2.390676e-03	2.594591e-04	6.299172e-03	4.191604e-04
190           	2.452052e-02	3.412792e-03	2.531216e-04	8.198086e-03	3.761692e-04
191           	2.414388e-02	2.382627e-03	2.586043e-04	6.281063e-03	4.184046e-04
192           	2.447163e-02	3.399328e-03	2.522794e-04	8.161685e-03	3.753498e-04
193           	2.409734e-02	2.374692e-03	2.577283e-04	6.263288e-03	4.176711e-04
194           	2.442491e-02	3.385948e-03	2.514216e-04	8.125612e-03	3.743309e-04
195           	2.405357e-02	2.366791e-03	2.568463e-04	6.245520e-03	4.168306e-04
196           	2.437555e-02	3.371907e-03	2.506121e-04	8.087538e-03	3.730910e-04
197           	2.400777e-02	2.358400e-03	2.560541e-04	6.226589e-03	4.157971e-04
198           	2.433587e-02	3.358402e-03	2.498288e-04	8.051582e-03	3.716994e-04
199           	2.396823e-02	2.350429e-03	2.552449e-04	6.209059e-03	4.145882e-04
200           	2.429650e-02	3.345079e-03	2.490214e-04	8.015603e-03	3.701607e-04
201           	2.393128e-02	2.342629e-03	2.544078e-04	6.191895e-03	4.132599e-04
202           	2.425964e-02	3.331890e-03	2.482054e-04	7.980329e-03	3.685246e-04
203           	2.389639e-02	2.334910e-03	2.535740e-04	6.174768e-03	4.118837e-04
204           	2.421936e-02	3.318277e-03	2.474423e-04	7.944061e-03	3.667920e-04
205           	2.385905e-02	2.326796e-03	2.528310e-04	6.156744e-03	4.103994e-04
206           	2.418817e-02	3.305167e-03	2.467109e-04	7.909760e-03	3.650264e-04
207           	2.382875e-02	2.319148e-03	2.520831e-04	6.139871e-03	4.088804e-04
208           	2.415779e-02	3.292306e-03	2.459696e-04	7.875958e-03	3.632592e-04
209           	2.379987e-02	2.311664e-03	2.513123e-04	6.123433e-03	4.073011e-04
210           	2.412276e-02	3.279073e-03	2.452519e-04	7.841133e-03	3.614244e-04
211           	2.376739e-02	2.303835e-03	2.506073e-04	6.106135e-03	4.056227e-04
212           	2.409703e-02	3.266555e-03	2.445529e-04	7.808644e-03	3.595318e-04
213           	2.374235e-02	2.296581e-03	2.498862e-04	6.090233e-03	4.039199e-04
214           	2.407189e-02	3.254349e-03	2.438357e-04	7.776663e-03	3.576260e-04
215           	2.371843e-02	2.289509e-03	2.491417e-04	6.074790e-03	4.021197e-04
216           	2.404181e-02	3.241887e-03	2.431443e-04	7.743659e-03	3.557517e-04
217           	2.369094e-02	2.282090e-03	2.484657e-04	6.058598e-03	4.003936e-04
218           	2.402112e-02	3.229969e-03	2.424721e-04	7.712870e-03	3.539194e-04
219           	2.367065e-02	2.275183e-03	2.477801e-04	6.043543e-03	3.987104e-04
220           	2.400061e-02	3.218330e-03	2.417911e-04	7.682509e-03	3.520975e-04
221           	2.365121e-02	2.268377e-03	2.470724e-04	6.028576e-03	3.970165e-04
222           	2.397520e-02	3.206357e-03	2.411348e-04	7.650918e-03	3.502627e-04
223           	2.362765e-02	2.261361e-03	2.464363e-04	6.013451e-03	3.952940e-04
224           	2.395786e-02	3.195149e-03	2.405080e-04	7.622024e-03	3.484613e-04
225           	2.361039e-02	2.254800e-03	2.457924e-04	5.998948e-03	3.936154e-04
226           	2.394052e-02	3.184150e-03	2.398677e-04	7.593050e-03	3.466493e-04
227           	2.359406e-02	2.248471e-03	2.451349e-04	5.985278e-03	3.919595e-04
228           	2.391834e-02	3.173060e-03	2.392635e-04	7.563769e-03	3.449336e-04
229           	2.357374e-02	2.241897e-03	2.445516e-04	5.971202e-03	3.903801e-04
230           	2.390418e-02	3.162582e-03	2.386852e-04	7.536466e-03	3.433564e-04
231           	2.355932e-02	2.235772e-03	2.439516e-04	5.957775e-03	3.888748e-04
