# Region          : all 
# Cells           : 2720
# Volume          : 2.0709567487e-09
# Time            	max(U)	max(p)
3e-05             	(1.8638009187e-05 2.9515195456e-04 1.5024129321e-03)	1.0000148513e+05
5.605e-05         	(1.8638009183e-05 2.9514373538e-04 1.5024129489e-03)	1.0000148513e+05
