/*--------------------------------*- C++ -*----------------------------------*\
  =========                 |
  \\      /  F ield         | OpenFOAM: The Open Source CFD Toolbox
   \\    /   O peration     | Website:  https://openfoam.org
    \\  /    A nd           | Version:  7
     \\/     M anipulation  |
\*---------------------------------------------------------------------------*/
FoamFile
{
    version     2.0;
    format      binary;
    class       volScalarField;
    location    "4.985e-05";
    object      rho;
}
// * * * * * * * * * * * * * * * * * * * * * * * * * * * * * * * * * * * * * //

dimensions      [1 -3 0 0 0 0 0];

internalField   uniform 1000;

boundaryField
{
    front
    {
        type            empty;
    }
    back
    {
        type            empty;
    }
    input
    {
        type            calculated;
        value           uniform 1000;
    }
    output
    {
        type            calculated;
        value           uniform 1000;
    }
    wall2
    {
        type            calculated;
        value           uniform 1000;
    }
    wall1
    {
        type            calculated;
        value           uniform 1000;
    }
}


// ************************************************************************* //
