# Residuals   
# Time        	p             	Ux            	Uy            	Uz            	h             
1             	1.000000e+00	1.000000e+00	1.000000e+00	1.000000e+00	1.000000e+00
2             	9.663664e-01	6.517979e-01	6.514944e-01	8.049080e-01	2.413373e-01
3             	1.724783e-01	4.607713e-01	4.597812e-01	5.870348e-01	1.403128e-01
4             	1.047812e-01	2.701106e-01	2.698418e-01	3.087313e-01	1.053349e-01
5             	7.930006e-02	2.052854e-01	1.998433e-01	2.420800e-01	8.880008e-02
6             	7.244707e-02	1.669541e-01	1.538427e-01	2.717025e-01	3.464450e-02
7             	7.270541e-02	1.453198e-01	1.215288e-01	1.745402e-01	2.848605e-02
8             	7.379420e-02	1.215004e-01	1.063831e-01	7.992481e-02	3.042475e-02
9             	7.450260e-02	1.037311e-01	9.574592e-02	5.413215e-02	2.980595e-02
10            	7.538402e-02	9.258326e-02	7.705964e-02	4.708724e-02	2.518350e-02
11            	7.715258e-02	7.932969e-02	5.385121e-02	4.889815e-02	2.003553e-02
12            	7.921089e-02	7.372335e-02	4.318078e-02	5.491577e-02	1.582974e-02
13            	8.114795e-02	6.931886e-02	3.985429e-02	6.372717e-02	1.408456e-02
14            	8.307209e-02	7.005146e-02	4.183504e-02	7.390587e-02	1.337169e-02
15            	8.523517e-02	7.574921e-02	4.976668e-02	8.479595e-02	1.376530e-02
16            	8.771996e-02	7.993752e-02	6.385446e-02	9.528483e-02	1.547834e-02
17            	9.329785e-02	8.145126e-02	7.725963e-02	1.059021e-01	2.105055e-02
18            	1.044379e-01	8.076467e-02	8.435420e-02	1.094360e-01	3.282921e-02
19            	1.223531e-01	7.884808e-02	8.509423e-02	1.079567e-01	5.224035e-02
20            	1.428718e-01	7.602353e-02	8.317430e-02	1.049985e-01	7.335727e-02
21            	1.535940e-01	7.313238e-02	7.998382e-02	1.026697e-01	8.257563e-02
22            	1.653504e-01	7.087109e-02	7.692822e-02	1.009226e-01	8.000402e-02
23            	1.696717e-01	6.920452e-02	7.495651e-02	9.981116e-02	6.994353e-02
24            	1.605954e-01	6.712349e-02	7.276636e-02	9.864113e-02	6.039594e-02
25            	1.484568e-01	6.526880e-02	7.053419e-02	9.727288e-02	5.336559e-02
26            	1.401362e-01	6.337661e-02	6.856461e-02	9.546312e-02	4.684073e-02
27            	1.393135e-01	6.164804e-02	6.676953e-02	9.355527e-02	4.272960e-02
28            	1.393889e-01	6.009165e-02	6.517436e-02	9.177240e-02	3.974358e-02
29            	1.399541e-01	5.858783e-02	6.364084e-02	8.985280e-02	3.753833e-02
30            	1.404157e-01	5.714289e-02	6.215986e-02	8.780992e-02	3.586429e-02
31            	1.402315e-01	5.567820e-02	6.053158e-02	8.548355e-02	3.427822e-02
32            	1.400488e-01	5.416968e-02	5.886657e-02	8.314327e-02	3.251806e-02
33            	1.409110e-01	5.278575e-02	5.718283e-02	8.070900e-02	3.125665e-02
34            	1.404355e-01	5.122168e-02	5.539117e-02	7.792510e-02	2.984956e-02
35            	1.405334e-01	4.981405e-02	5.363150e-02	7.538592e-02	2.825415e-02
36            	1.368388e-01	4.818775e-02	5.178010e-02	7.257405e-02	2.681692e-02
37            	1.344231e-01	4.674427e-02	4.996179e-02	7.005327e-02	2.544279e-02
38            	1.295241e-01	4.509195e-02	4.810483e-02	6.740063e-02	2.420108e-02
39            	1.265959e-01	4.374026e-02	4.641107e-02	6.504335e-02	2.310881e-02
40            	1.218747e-01	4.215921e-02	4.471782e-02	6.262277e-02	2.205508e-02
41            	1.195269e-01	4.097912e-02	4.326620e-02	6.050568e-02	2.101790e-02
42            	1.154798e-01	3.955314e-02	4.177460e-02	5.833686e-02	2.009218e-02
43            	1.140440e-01	3.859804e-02	4.058189e-02	5.647572e-02	1.920542e-02
44            	1.105642e-01	3.732111e-02	3.927277e-02	5.446401e-02	1.840259e-02
45            	1.100614e-01	3.652494e-02	3.825277e-02	5.288423e-02	1.753965e-02
46            	1.073710e-01	3.540019e-02	3.711967e-02	5.123447e-02	1.672873e-02
47            	1.077275e-01	3.474483e-02	3.628484e-02	4.986391e-02	1.592879e-02
48            	1.053316e-01	3.375668e-02	3.531196e-02	4.842017e-02	1.525925e-02
49            	1.065817e-01	3.323902e-02	3.464393e-02	4.729511e-02	1.454470e-02
50            	1.044277e-01	3.236482e-02	3.380047e-02	4.605016e-02	1.389137e-02
51            	1.067226e-01	3.194878e-02	3.326883e-02	4.519338e-02	1.325134e-02
52            	1.047875e-01	3.115601e-02	3.252373e-02	4.417985e-02	1.269623e-02
53            	1.084232e-01	3.085870e-02	3.209899e-02	4.357831e-02	1.211578e-02
54            	1.060961e-01	3.011952e-02	3.141875e-02	4.285053e-02	1.164212e-02
55            	1.115722e-01	2.994437e-02	3.107721e-02	4.245872e-02	1.110068e-02
56            	1.088547e-01	2.922149e-02	3.044764e-02	4.203359e-02	1.070433e-02
57            	1.164003e-01	2.916876e-02	3.018311e-02	4.189416e-02	1.023903e-02
58            	1.115468e-01	2.845852e-02	2.956037e-02	4.156538e-02	9.939027e-03
59            	1.220796e-01	2.855472e-02	2.940093e-02	4.188423e-02	9.501328e-03
60            	1.150033e-01	2.787382e-02	2.878575e-02	4.189107e-02	9.271116e-03
61            	1.282119e-01	2.825176e-02	2.889292e-02	4.313029e-02	8.872897e-03
62            	1.142199e-01	2.737792e-02	2.813212e-02	4.339094e-02	8.719330e-03
63            	1.321500e-01	2.824578e-02	2.861376e-02	4.646590e-02	8.342161e-03
64            	1.171546e-01	2.699299e-02	2.748936e-02	4.673180e-02	8.339808e-03
65            	1.418731e-01	2.800325e-02	2.789947e-02	5.120112e-02	7.858818e-03
66            	1.346584e-01	2.672172e-02	2.678618e-02	5.305232e-02	7.871140e-03
67            	1.611950e-01	2.759776e-02	2.697811e-02	5.867435e-02	7.387765e-03
68            	1.597783e-01	2.641648e-02	2.586522e-02	6.242236e-02	7.401043e-03
69            	1.848685e-01	2.687264e-02	2.546395e-02	6.518126e-02	7.072410e-03
70            	1.873499e-01	2.589140e-02	2.448454e-02	4.878904e-02	7.117319e-03
71            	2.129627e-01	2.587262e-02	2.346295e-02	3.937839e-02	7.109280e-03
72            	2.199926e-01	2.464845e-02	2.220712e-02	2.711749e-02	7.654773e-03
73            	2.416708e-01	2.393179e-02	2.027595e-02	2.283597e-02	8.578819e-03
74            	2.402551e-01	2.166600e-02	1.838855e-02	1.681032e-02	1.077604e-02
75            	2.527558e-01	1.973689e-02	1.587419e-02	1.457276e-02	1.419511e-02
76            	2.527828e-01	1.615032e-02	1.398459e-02	1.130116e-02	2.038730e-02
77            	2.651200e-01	1.411358e-02	1.189793e-02	1.001141e-02	2.824020e-02
78            	2.695598e-01	1.134977e-02	1.050674e-02	8.144673e-03	3.920823e-02
79            	2.856065e-01	9.985594e-03	8.976977e-03	7.422196e-03	4.827808e-02
80            	2.890949e-01	8.054922e-03	8.045707e-03	6.352093e-03	5.552324e-02
81            	2.933514e-01	7.205550e-03	6.988526e-03	5.978312e-03	5.559760e-02
82            	2.911268e-01	5.893643e-03	6.517467e-03	5.443005e-03	5.327680e-02
83            	2.950794e-01	5.397877e-03	5.777230e-03	5.302926e-03	4.804701e-02
84            	2.868529e-01	4.572580e-03	5.786798e-03	5.194921e-03	4.985998e-02
85            	2.968970e-01	4.360097e-03	5.211578e-03	5.249926e-03	5.390866e-02
86            	2.891130e-01	3.827083e-03	5.644248e-03	5.363011e-03	6.815540e-02
87            	3.063080e-01	3.837073e-03	5.099664e-03	5.519361e-03	6.931324e-02
88            	2.859416e-01	3.423555e-03	5.916373e-03	5.872251e-03	7.997853e-02
89            	3.121380e-01	3.596563e-03	5.465674e-03	5.372070e-03	7.200317e-02
90            	2.873401e-01	3.125747e-03	6.211876e-03	6.166429e-03	7.005307e-02
91            	3.163414e-01	3.381772e-03	5.780068e-03	5.207840e-03	6.565762e-02
92            	2.891591e-01	2.985497e-03	6.269245e-03	5.769346e-03	6.513524e-02
93            	3.198648e-01	3.162546e-03	5.679305e-03	5.208236e-03	6.220703e-02
94            	2.890255e-01	2.900234e-03	6.261804e-03	5.454695e-03	6.256784e-02
95            	3.185141e-01	3.094103e-03	5.720478e-03	5.305805e-03	6.236349e-02
96            	2.857357e-01	2.855815e-03	6.265367e-03	5.267200e-03	6.227870e-02
97            	3.154007e-01	3.070710e-03	5.744395e-03	5.246425e-03	6.315214e-02
98            	2.817122e-01	2.851484e-03	6.305194e-03	5.151171e-03	6.407247e-02
99            	3.121097e-01	3.078899e-03	5.793955e-03	5.280568e-03	6.504218e-02
100           	2.774804e-01	2.875547e-03	6.372317e-03	5.091467e-03	6.569670e-02
101           	3.083506e-01	3.099268e-03	5.859192e-03	5.250418e-03	6.660994e-02
102           	2.733453e-01	2.894583e-03	6.443269e-03	5.043911e-03	6.706626e-02
103           	3.047207e-01	3.129218e-03	5.939384e-03	5.270637e-03	6.799801e-02
104           	2.700365e-01	2.922378e-03	6.551389e-03	5.019067e-03	6.933382e-02
105           	3.018766e-01	3.165030e-03	6.049935e-03	5.325213e-03	6.967417e-02
106           	2.671272e-01	2.951104e-03	6.662367e-03	5.026165e-03	7.046964e-02
107           	2.993102e-01	3.198817e-03	6.158060e-03	5.313456e-03	7.067160e-02
108           	2.649746e-01	2.964831e-03	6.770874e-03	5.019706e-03	7.126670e-02
109           	2.972941e-01	3.226365e-03	6.244743e-03	5.347504e-03	7.163573e-02
110           	2.629672e-01	2.983939e-03	6.861567e-03	5.022327e-03	7.238280e-02
111           	2.956303e-01	3.250828e-03	6.324562e-03	5.369204e-03	7.218586e-02
112           	2.612892e-01	3.004835e-03	6.910471e-03	5.046865e-03	7.229413e-02
113           	2.938768e-01	3.272018e-03	6.353592e-03	5.331928e-03	7.261397e-02
114           	2.600351e-01	3.010038e-03	6.965996e-03	5.044400e-03	7.322668e-02
115           	2.928368e-01	3.289755e-03	6.395671e-03	5.421228e-03	7.325982e-02
116           	2.585532e-01	3.028723e-03	7.007342e-03	5.059122e-03	7.363807e-02
117           	2.917085e-01	3.308601e-03	6.446581e-03	5.431697e-03	7.333210e-02
118           	2.575073e-01	3.045700e-03	7.021420e-03	5.081762e-03	7.286167e-02
119           	2.905827e-01	3.326690e-03	6.447674e-03	5.407659e-03	7.345234e-02
120           	2.567796e-01	3.051862e-03	7.056551e-03	5.090174e-03	7.358737e-02
121           	2.899408e-01	3.340843e-03	6.474080e-03	5.483675e-03	7.347428e-02
122           	2.559054e-01	3.070148e-03	7.055529e-03	5.104892e-03	7.323318e-02
123           	2.890956e-01	3.355634e-03	6.480547e-03	5.464987e-03	7.351965e-02
124           	2.553728e-01	3.080045e-03	7.068614e-03	5.125862e-03	7.310110e-02
125           	2.885835e-01	3.372823e-03	6.491253e-03	5.511901e-03	7.358775e-02
126           	2.548061e-01	3.094750e-03	7.093920e-03	5.150591e-03	7.335987e-02
127           	2.881209e-01	3.389587e-03	6.520157e-03	5.548184e-03	7.346848e-02
128           	2.543331e-01	3.111000e-03	7.094171e-03	5.172900e-03	7.271988e-02
129           	2.876433e-01	3.406932e-03	6.525535e-03	5.555980e-03	7.344851e-02
130           	2.540748e-01	3.123654e-03	7.115218e-03	5.206720e-03	7.281084e-02
131           	2.873302e-01	3.421970e-03	6.544838e-03	5.606863e-03	7.331031e-02
132           	2.537153e-01	3.137977e-03	7.127251e-03	5.234042e-03	7.276171e-02
133           	2.870651e-01	3.439386e-03	6.568085e-03	5.651790e-03	7.333685e-02
134           	2.534380e-01	3.153116e-03	7.142959e-03	5.271133e-03	7.239712e-02
135           	2.867783e-01	3.456470e-03	6.583905e-03	5.679222e-03	7.320911e-02
136           	2.532492e-01	3.166303e-03	7.163684e-03	5.302944e-03	7.236942e-02
137           	2.866166e-01	3.473190e-03	6.607358e-03	5.735631e-03	7.314554e-02
138           	2.530377e-01	3.182677e-03	7.183693e-03	5.337699e-03	7.217077e-02
139           	2.864066e-01	3.491118e-03	6.629364e-03	5.766755e-03	7.304420e-02
140           	2.529040e-01	3.195103e-03	7.199686e-03	5.363274e-03	7.192266e-02
141           	2.862992e-01	3.506923e-03	6.646673e-03	5.813445e-03	7.299680e-02
142           	2.527818e-01	3.209175e-03	7.219138e-03	5.394105e-03	7.189559e-02
143           	2.861506e-01	3.520959e-03	6.666665e-03	5.839212e-03	7.289325e-02
144           	2.526684e-01	3.219302e-03	7.232996e-03	5.407046e-03	7.176306e-02
145           	2.861115e-01	3.530978e-03	6.680152e-03	5.878049e-03	7.289068e-02
146           	2.525873e-01	3.231865e-03	7.250967e-03	5.432627e-03	7.173616e-02
147           	2.859751e-01	3.541862e-03	6.694333e-03	5.886834e-03	7.274568e-02
148           	2.525368e-01	3.237322e-03	7.260012e-03	5.440454e-03	7.166577e-02
149           	2.859970e-01	3.550126e-03	6.705081e-03	5.932536e-03	7.277263e-02
150           	2.524680e-01	3.248056e-03	7.275267e-03	5.468728e-03	7.168896e-02
151           	2.858782e-01	3.560841e-03	6.719000e-03	5.936616e-03	7.262362e-02
152           	2.524431e-01	3.250891e-03	7.279118e-03	5.473468e-03	7.151180e-02
153           	2.859413e-01	3.567754e-03	6.725198e-03	5.985110e-03	7.265424e-02
154           	2.524126e-01	3.261585e-03	7.292488e-03	5.503698e-03	7.158671e-02
155           	2.858097e-01	3.577384e-03	6.736596e-03	5.979488e-03	7.247353e-02
156           	2.524042e-01	3.261545e-03	7.290892e-03	5.501455e-03	7.141768e-02
157           	2.859152e-01	3.581819e-03	6.740747e-03	6.035155e-03	7.256444e-02
158           	2.523668e-01	3.272806e-03	7.303962e-03	5.537488e-03	7.150719e-02
159           	2.857581e-01	3.592338e-03	6.752707e-03	6.008835e-03	7.234357e-02
160           	2.523754e-01	3.270959e-03	7.298509e-03	5.523630e-03	7.128698e-02
161           	2.859116e-01	3.596940e-03	6.753851e-03	6.071990e-03	7.248427e-02
162           	2.523414e-01	3.287536e-03	7.317885e-03	5.567644e-03	7.147561e-02
163           	2.857101e-01	3.607472e-03	6.768485e-03	6.033657e-03	7.222588e-02
164           	2.523523e-01	3.283218e-03	7.310430e-03	5.555832e-03	7.119715e-02
165           	2.859113e-01	3.612182e-03	6.772765e-03	6.119400e-03	7.244340e-02
166           	2.523106e-01	3.301380e-03	7.332997e-03	5.611731e-03	7.144515e-02
167           	2.856477e-01	3.624031e-03	6.789738e-03	6.065791e-03	7.211088e-02
168           	2.523378e-01	3.294769e-03	7.323750e-03	5.586810e-03	7.109739e-02
169           	2.859218e-01	3.627771e-03	6.789796e-03	6.169098e-03	7.241987e-02
170           	2.522890e-01	3.316352e-03	7.351452e-03	5.647266e-03	7.146363e-02
171           	2.855921e-01	3.639772e-03	6.808117e-03	6.085291e-03	7.203603e-02
172           	2.523276e-01	3.303516e-03	7.333265e-03	5.602881e-03	7.100378e-02
173           	2.859577e-01	3.642996e-03	6.808945e-03	6.221679e-03	7.242269e-02
174           	2.522681e-01	3.329893e-03	7.369034e-03	5.677548e-03	7.148315e-02
175           	2.855629e-01	3.657162e-03	6.832844e-03	6.110296e-03	7.196482e-02
176           	2.523262e-01	3.312043e-03	7.343122e-03	5.619107e-03	7.089307e-02
177           	2.860021e-01	3.660060e-03	6.831144e-03	6.281019e-03	7.243877e-02
178           	2.522520e-01	3.343687e-03	7.385917e-03	5.710091e-03	7.153058e-02
179           	2.855427e-01	3.676829e-03	6.860453e-03	6.140844e-03	7.189814e-02
180           	2.523288e-01	3.321971e-03	7.355095e-03	5.638656e-03	7.076532e-02
181           	2.860391e-01	3.676961e-03	6.848796e-03	6.336131e-03	7.247016e-02
182           	2.522481e-01	3.360316e-03	7.407834e-03	5.746835e-03	7.160198e-02
183           	2.855115e-01	3.697326e-03	6.888587e-03	6.174414e-03	7.183706e-02
184           	2.523358e-01	3.336184e-03	7.374720e-03	5.670272e-03	7.064926e-02
185           	2.860573e-01	3.697228e-03	6.873840e-03	6.400335e-03	7.251596e-02
186           	2.522414e-01	3.381614e-03	7.436942e-03	5.802627e-03	7.168320e-02
187           	2.854731e-01	3.719953e-03	6.919976e-03	6.213818e-03	7.179509e-02
188           	2.523331e-01	3.355967e-03	7.400144e-03	5.720564e-03	7.054057e-02
189           	2.860537e-01	3.720785e-03	6.904636e-03	6.461077e-03	7.256038e-02
190           	2.522365e-01	3.406123e-03	7.472925e-03	5.859016e-03	7.177143e-02
191           	2.854589e-01	3.745848e-03	6.957911e-03	6.253873e-03	7.176680e-02
192           	2.523299e-01	3.376603e-03	7.428947e-03	5.762492e-03	7.047224e-02
193           	2.860717e-01	3.745907e-03	6.938208e-03	6.519978e-03	7.257843e-02
194           	2.522434e-01	3.428172e-03	7.504389e-03	5.906738e-03	7.180911e-02
195           	2.854749e-01	3.773979e-03	7.000929e-03	6.308227e-03	7.173469e-02
196           	2.523433e-01	3.398499e-03	7.459305e-03	5.806498e-03	7.040513e-02
197           	2.861006e-01	3.774157e-03	6.975479e-03	6.590209e-03	7.254787e-02
198           	2.522805e-01	3.453994e-03	7.540552e-03	5.959922e-03	7.180405e-02
199           	2.855023e-01	3.805555e-03	7.048867e-03	6.377020e-03	7.169019e-02
200           	2.523800e-01	3.426451e-03	7.498508e-03	5.859738e-03	7.034895e-02
201           	2.861346e-01	3.808160e-03	7.024194e-03	6.672644e-03	7.249911e-02
202           	2.523269e-01	3.484671e-03	7.583825e-03	6.017451e-03	7.179138e-02
203           	2.855320e-01	3.842396e-03	7.103962e-03	6.452690e-03	7.165504e-02
204           	2.524124e-01	3.460514e-03	7.549121e-03	5.919167e-03	7.031675e-02
205           	2.861614e-01	3.846042e-03	7.078917e-03	6.752977e-03	7.245738e-02
206           	2.523633e-01	3.520456e-03	7.637284e-03	6.080098e-03	7.179538e-02
207           	2.855505e-01	3.881683e-03	7.163122e-03	6.525323e-03	7.163849e-02
208           	2.524410e-01	3.496325e-03	7.604282e-03	5.980081e-03	7.030613e-02
209           	2.861848e-01	3.885841e-03	7.138041e-03	6.831663e-03	7.228903e-02
210           	2.524001e-01	3.553637e-03	7.687481e-03	6.144553e-03	7.158013e-02
211           	2.855675e-01	3.921190e-03	7.224560e-03	6.587825e-03	7.149220e-02
212           	2.524425e-01	3.527521e-03	7.646219e-03	6.038319e-03	7.007662e-02
213           	2.861977e-01	3.922649e-03	7.187744e-03	6.896069e-03	7.222317e-02
214           	2.524140e-01	3.585206e-03	7.722134e-03	6.195104e-03	7.167249e-02
215           	2.855853e-01	3.958350e-03	7.273313e-03	6.658998e-03	7.148190e-02
216           	2.524880e-01	3.560073e-03	7.682158e-03	6.087680e-03	7.023211e-02
217           	2.862547e-01	3.961650e-03	7.244541e-03	6.982214e-03	7.228960e-02
218           	2.524309e-01	3.619106e-03	7.761672e-03	6.247348e-03	7.173254e-02
219           	2.856353e-01	3.997041e-03	7.333315e-03	6.716694e-03	7.155234e-02
220           	2.525589e-01	3.594164e-03	7.729931e-03	6.137966e-03	7.023277e-02
221           	2.862854e-01	3.998483e-03	7.299138e-03	7.042438e-03	7.226143e-02
222           	2.525161e-01	3.653389e-03	7.810577e-03	6.297602e-03	7.175448e-02
223           	2.856693e-01	4.035830e-03	7.391723e-03	6.792830e-03	7.155242e-02
224           	2.526723e-01	3.635602e-03	7.796031e-03	6.210921e-03	7.024198e-02
225           	2.863061e-01	4.039650e-03	7.359673e-03	7.118688e-03	7.223108e-02
226           	2.526338e-01	3.693514e-03	7.874019e-03	6.370514e-03	7.171025e-02
227           	2.856719e-01	4.077813e-03	7.453269e-03	6.865152e-03	7.153708e-02
228           	2.527925e-01	3.672385e-03	7.856128e-03	6.282422e-03	7.024667e-02
229           	2.863131e-01	4.080694e-03	7.418945e-03	7.199690e-03	7.219129e-02
230           	2.527323e-01	3.724837e-03	7.922212e-03	6.436555e-03	7.171591e-02
231           	2.856885e-01	4.117851e-03	7.515582e-03	6.947569e-03	7.153962e-02
232           	2.528803e-01	3.701680e-03	7.901623e-03	6.343801e-03	7.023142e-02
233           	2.863742e-01	4.121084e-03	7.487079e-03	7.316589e-03	7.213599e-02
234           	2.528116e-01	3.751973e-03	7.968113e-03	6.498408e-03	7.168180e-02
235           	2.857729e-01	4.156907e-03	7.584017e-03	7.045366e-03	7.148246e-02
236           	2.529274e-01	3.729596e-03	7.952423e-03	6.401282e-03	7.018587e-02
237           	2.864123e-01	4.148456e-03	7.531088e-03	7.380271e-03	7.206710e-02
238           	2.528646e-01	3.782093e-03	8.014679e-03	6.547037e-03	7.161024e-02
239           	2.857390e-01	4.178577e-03	7.622486e-03	7.102980e-03	7.141048e-02
240           	2.530304e-01	3.765640e-03	8.006827e-03	6.455896e-03	7.007710e-02
241           	2.863360e-01	4.178254e-03	7.581981e-03	7.441979e-03	7.197050e-02
242           	2.529987e-01	3.820186e-03	8.071383e-03	6.607623e-03	7.153546e-02
243           	2.856596e-01	4.219262e-03	7.685765e-03	7.168721e-03	7.132675e-02
244           	2.531669e-01	3.797237e-03	8.055443e-03	6.509312e-03	7.002235e-02
245           	2.863187e-01	4.220842e-03	7.646325e-03	7.513550e-03	7.190151e-02
246           	2.531077e-01	3.842650e-03	8.107171e-03	6.643966e-03	7.150991e-02
247           	2.856932e-01	4.257508e-03	7.746271e-03	7.230561e-03	7.127580e-02
248           	2.532312e-01	3.819703e-03	8.093257e-03	6.539037e-03	7.000167e-02
249           	2.863721e-01	4.253365e-03	7.699415e-03	7.581582e-03	7.183967e-02
250           	2.531520e-01	3.867252e-03	8.146191e-03	6.678057e-03	7.145592e-02
251           	2.857434e-01	4.287017e-03	7.796527e-03	7.293040e-03	7.120035e-02
252           	2.532842e-01	3.847890e-03	8.134028e-03	6.578337e-03	6.989269e-02
253           	2.864079e-01	4.280290e-03	7.744349e-03	7.643171e-03	7.172806e-02
254           	2.532201e-01	3.895717e-03	8.182422e-03	6.717944e-03	7.135261e-02
255           	2.857481e-01	4.314042e-03	7.842689e-03	7.353186e-03	7.109281e-02
256           	2.533801e-01	3.878297e-03	8.175349e-03	6.622110e-03	6.979341e-02
257           	2.863669e-01	4.307524e-03	7.789880e-03	7.704032e-03	7.163412e-02
258           	2.533387e-01	3.925334e-03	8.223589e-03	6.761391e-03	7.128774e-02
259           	2.856664e-01	4.342312e-03	7.891118e-03	7.412903e-03	7.102025e-02
260           	2.534891e-01	3.906190e-03	8.218164e-03	6.663278e-03	6.974611e-02
261           	2.862688e-01	4.336585e-03	7.838468e-03	7.764835e-03	7.157718e-02
262           	2.534276e-01	3.948070e-03	8.258270e-03	6.795682e-03	7.126036e-02
263           	2.855984e-01	4.372065e-03	7.941217e-03	7.467742e-03	7.097886e-02
264           	2.535493e-01	3.924722e-03	8.247915e-03	6.689673e-03	6.972708e-02
265           	2.862731e-01	4.364798e-03	7.885571e-03	7.823593e-03	7.152878e-02
266           	2.534792e-01	3.964914e-03	8.284399e-03	6.819071e-03	7.122573e-02
267           	2.856673e-01	4.397960e-03	7.991224e-03	7.524834e-03	7.092939e-02
268           	2.536283e-01	3.940356e-03	8.274929e-03	6.717018e-03	6.963837e-02
269           	2.863828e-01	4.396208e-03	7.941280e-03	7.899990e-03	7.140627e-02
270           	2.535828e-01	3.984654e-03	8.314523e-03	6.848133e-03	7.110928e-02
271           	2.857641e-01	4.430352e-03	8.046770e-03	7.598251e-03	7.080498e-02
272           	2.537321e-01	3.968084e-03	8.316010e-03	6.751230e-03	6.953400e-02
273           	2.864258e-01	4.418728e-03	7.984450e-03	7.962447e-03	7.131174e-02
274           	2.536682e-01	4.013325e-03	8.355839e-03	6.888289e-03	7.102797e-02
275           	2.857421e-01	4.451400e-03	8.088144e-03	7.654106e-03	7.072141e-02
276           	2.538427e-01	3.999134e-03	8.362438e-03	6.797302e-03	6.944220e-02
277           	2.863289e-01	4.442247e-03	8.029331e-03	8.015119e-03	7.123281e-02
278           	2.537939e-01	4.043664e-03	8.402736e-03	6.927748e-03	7.100201e-02
279           	2.856176e-01	4.476275e-03	8.136145e-03	7.705642e-03	7.069329e-02
280           	2.539516e-01	4.036849e-03	8.430111e-03	6.877509e-03	6.974036e-02
281           	2.862558e-01	4.484055e-03	8.103644e-03	8.096286e-03	7.147717e-02
282           	2.538142e-01	4.072535e-03	8.464518e-03	6.970282e-03	7.095976e-02
283           	2.855507e-01	4.501007e-03	8.183682e-03	7.747001e-03	7.065885e-02
284           	2.539689e-01	4.037286e-03	8.430670e-03	6.839828e-03	6.941821e-02
285           	2.862447e-01	4.492455e-03	8.118516e-03	8.111439e-03	7.115278e-02
286           	2.539404e-01	4.073446e-03	8.455327e-03	6.962645e-03	7.094623e-02
287           	2.856782e-01	4.531349e-03	8.232961e-03	7.812627e-03	7.061500e-02
288           	2.540954e-01	4.052973e-03	8.460574e-03	6.867352e-03	6.944110e-02
289           	2.864060e-01	4.530562e-03	8.184798e-03	8.214057e-03	7.112054e-02
290           	2.540410e-01	4.097018e-03	8.495349e-03	6.997273e-03	7.086897e-02
291           	2.857827e-01	4.568353e-03	8.301209e-03	7.899156e-03	7.051472e-02
292           	2.542044e-01	4.091184e-03	8.519607e-03	6.904430e-03	6.926584e-02
293           	2.863925e-01	4.554753e-03	8.228626e-03	8.255242e-03	7.099204e-02
294           	2.541534e-01	4.135085e-03	8.553593e-03	7.041990e-03	7.078281e-02
295           	2.856727e-01	4.587603e-03	8.338690e-03	7.941972e-03	7.044528e-02
296           	2.543056e-01	4.122744e-03	8.569849e-03	6.950716e-03	6.922848e-02
297           	2.862196e-01	4.579958e-03	8.278964e-03	8.309669e-03	7.093784e-02
298           	2.542580e-01	4.160706e-03	8.595588e-03	7.075849e-03	7.070363e-02
299           	2.855123e-01	4.618397e-03	8.396792e-03	8.001287e-03	7.038397e-02
300           	2.544149e-01	4.141653e-03	8.602404e-03	6.973372e-03	6.920512e-02
301           	2.861625e-01	4.610615e-03	8.332227e-03	8.371452e-03	7.089656e-02
302           	2.543541e-01	4.173433e-03	8.619566e-03	7.089626e-03	7.072424e-02
303           	2.855779e-01	4.648524e-03	8.448839e-03	8.061266e-03	7.038120e-02
304           	2.544964e-01	4.153725e-03	8.627604e-03	6.984938e-03	6.921472e-02
305           	2.863062e-01	4.642560e-03	8.389520e-03	8.444263e-03	7.085442e-02
306           	2.544498e-01	4.190247e-03	8.651537e-03	7.107032e-03	7.065422e-02
307           	2.857181e-01	4.682030e-03	8.510409e-03	8.135409e-03	7.030258e-02
308           	2.546198e-01	4.178759e-03	8.672354e-03	7.012831e-03	6.911844e-02
309           	2.863733e-01	4.674607e-03	8.448816e-03	8.524872e-03	7.073861e-02
310           	2.545762e-01	4.222355e-03	8.703962e-03	7.143743e-03	7.042064e-02
311           	2.856296e-01	4.706692e-03	8.555955e-03	8.189265e-03	7.009497e-02
312           	2.547574e-01	4.213610e-03	8.726118e-03	7.055517e-03	6.897473e-02
313           	2.862063e-01	4.693051e-03	8.480964e-03	8.573455e-03	7.065278e-02
314           	2.547066e-01	4.251012e-03	8.745152e-03	7.186431e-03	7.056281e-02
315           	2.854930e-01	4.731596e-03	8.603537e-03	8.261764e-03	7.019691e-02
316           	2.548473e-01	4.238327e-03	8.766547e-03	7.094192e-03	6.903862e-02
317           	2.861034e-01	4.725398e-03	8.544802e-03	8.648490e-03	7.066638e-02
318           	2.548045e-01	4.272774e-03	8.785561e-03	7.212874e-03	7.043556e-02
319           	2.854647e-01	4.764625e-03	8.664347e-03	8.326615e-03	7.011354e-02
320           	2.549749e-01	4.255350e-03	8.798207e-03	7.110561e-03	6.895273e-02
321           	2.861671e-01	4.756829e-03	8.598011e-03	8.719153e-03	7.057172e-02
322           	2.549234e-01	4.283516e-03	8.807197e-03	7.225242e-03	7.040136e-02
323           	2.856002e-01	4.798678e-03	8.726687e-03	8.413105e-03	7.003783e-02
324           	2.550633e-01	4.272922e-03	8.828580e-03	7.122710e-03	6.890244e-02
325           	2.862711e-01	4.789797e-03	8.661719e-03	8.803645e-03	7.047548e-02
326           	2.550349e-01	4.307965e-03	8.845954e-03	7.248275e-03	7.013825e-02
327           	2.855506e-01	4.827897e-03	8.780846e-03	8.481373e-03	6.980636e-02
328           	2.552024e-01	4.300304e-03	8.870770e-03	7.157203e-03	6.862782e-02
329           	2.860779e-01	4.811663e-03	8.698241e-03	8.871741e-03	7.025983e-02
330           	2.551636e-01	4.336484e-03	8.884835e-03	7.283570e-03	7.014416e-02
331           	2.853480e-01	4.843133e-03	8.806959e-03	8.537301e-03	6.980319e-02
332           	2.553316e-01	4.325355e-03	8.902537e-03	7.195088e-03	6.878618e-02
333           	2.859778e-01	4.832779e-03	8.737570e-03	8.945843e-03	7.037019e-02
334           	2.552858e-01	4.358200e-03	8.916411e-03	7.317022e-03	7.025404e-02
335           	2.853993e-01	4.876043e-03	8.870170e-03	8.630421e-03	6.988478e-02
336           	2.554532e-01	4.347026e-03	8.937854e-03	7.220185e-03	6.869221e-02
337           	2.860430e-01	4.871416e-03	8.809228e-03	9.037080e-03	7.025263e-02
338           	2.554225e-01	4.379596e-03	8.953116e-03	7.332960e-03	7.005259e-02
339           	2.855035e-01	4.912289e-03	8.933113e-03	8.715153e-03	6.971754e-02
340           	2.555938e-01	4.366540e-03	8.968708e-03	7.232705e-03	6.844366e-02
341           	2.860961e-01	4.903388e-03	8.861774e-03	9.112750e-03	7.002011e-02
342           	2.555254e-01	4.397704e-03	8.974372e-03	7.341314e-03	6.984651e-02
343           	2.854420e-01	4.934367e-03	8.967123e-03	8.778047e-03	6.953036e-02
344           	2.556612e-01	4.386650e-03	8.987984e-03	7.252460e-03	6.840935e-02
345           	2.858874e-01	4.924875e-03	8.896141e-03	9.191301e-03	6.997262e-02
346           	2.555620e-01	4.422677e-03	9.007617e-03	7.373350e-03	6.987355e-02
347           	2.851384e-01	4.957101e-03	9.007107e-03	8.860286e-03	6.953370e-02
348           	2.556894e-01	4.416750e-03	9.030967e-03	7.293921e-03	6.840641e-02
349           	2.855880e-01	4.948507e-03	8.939503e-03	9.268819e-03	6.994873e-02
350           	2.556263e-01	4.452692e-03	9.048439e-03	7.413323e-03	6.979477e-02
351           	2.849540e-01	4.984830e-03	9.054661e-03	8.940789e-03	6.948231e-02
352           	2.557838e-01	4.443732e-03	9.066169e-03	7.328551e-03	6.836711e-02
353           	2.855056e-01	4.978757e-03	8.989470e-03	9.359215e-03	6.989994e-02
354           	2.556973e-01	4.471931e-03	9.073311e-03	7.433139e-03	6.974248e-02
355           	2.849400e-01	5.015427e-03	9.105193e-03	9.037038e-03	6.942539e-02
356           	2.558159e-01	4.458694e-03	9.083662e-03	7.335249e-03	6.830231e-02
357           	2.854606e-01	5.006766e-03	9.034505e-03	9.449249e-03	6.981086e-02
358           	2.557032e-01	4.488417e-03	9.092300e-03	7.443723e-03	6.965638e-02
359           	2.848420e-01	5.045536e-03	9.154450e-03	9.132268e-03	6.933879e-02
360           	2.557809e-01	4.480922e-03	9.111037e-03	7.354785e-03	6.824906e-02
361           	2.852102e-01	5.037477e-03	9.086854e-03	9.549566e-03	6.971620e-02
362           	2.556422e-01	4.515914e-03	9.125833e-03	7.470208e-03	6.953957e-02
363           	2.844789e-01	5.075681e-03	9.207467e-03	9.229002e-03	6.922022e-02
364           	2.557259e-01	4.513385e-03	9.149711e-03	7.388800e-03	6.807554e-02
365           	2.847829e-01	5.066955e-03	9.134901e-03	9.642765e-03	6.955968e-02
366           	2.556112e-01	4.549636e-03	9.163835e-03	7.506880e-03	6.939305e-02
367           	2.840728e-01	5.104847e-03	9.250802e-03	9.324703e-03	6.908847e-02
368           	2.557118e-01	4.544515e-03	9.182069e-03	7.424339e-03	6.798973e-02
369           	2.844320e-01	5.097207e-03	9.175232e-03	9.741439e-03	6.947662e-02
370           	2.555945e-01	4.574450e-03	9.182980e-03	7.533142e-03	6.931997e-02
371           	2.838215e-01	5.135513e-03	9.288525e-03	9.428043e-03	6.900498e-02
372           	2.556747e-01	4.564434e-03	9.191253e-03	7.442355e-03	6.790664e-02
373           	2.842176e-01	5.128603e-03	9.210017e-03	9.849573e-03	6.937114e-02